       #
       # Generated by the Wannier90 code http://www.wannier.org
       # On  1Apr2018 at 06:43:27 
       #
CRYSTAL
PRIMVEC
   3.0715001   0.0000000   0.0000000
   0.0300198   3.0713534   0.0000000
   0.0300198   0.0297278   3.0712095
CONVVEC
   3.0715001   0.0000000   0.0000000
   0.0300198   3.0713534   0.0000000
   0.0300198   0.0297278   3.0712095
PRIMCOORD
     1  1
Sn      0.0000000   0.0000000   0.0000000


BEGIN_BLOCK_DATAGRID_3D
3D_field
BEGIN_DATAGRID_3D_UNKNOWN
    40    40    40
   -3.288117   -3.256135   -3.224770
   5.9894252   0.0000000   0.0000000
   0.0585386   5.9891391   0.0000000
   0.0585386   0.0579692   5.9888585
  0.10418E-02  0.11923E-02  0.10700E-02  0.74599E-03  0.38325E-03  0.11261E-03
 -0.44779E-04 -0.15091E-03 -0.27064E-03 -0.42138E-03 -0.57871E-03 -0.70636E-03
 -0.78186E-03 -0.81003E-03 -0.80668E-03 -0.73752E-03 -0.46078E-03  0.22457E-03
  0.14052E-02  0.29069E-02  0.43641E-02  0.54835E-02  0.62441E-02  0.68245E-02
  0.73518E-02  0.77558E-02  0.78596E-02  0.75574E-02  0.68777E-02  0.59171E-02
  0.47719E-02  0.35362E-02  0.23189E-02  0.12292E-02  0.34370E-03 -0.31301E-03
 -0.77375E-03 -0.11173E-02 -0.14217E-02 -0.16965E-02  0.12511E-02  0.14329E-02
  0.13738E-02  0.10783E-02  0.66391E-03  0.26310E-03 -0.67477E-04 -0.35547E-03
 -0.65673E-03 -0.10056E-02 -0.14079E-02 -0.18595E-02 -0.23678E-02 -0.29681E-02
 -0.37069E-02 -0.45635E-02 -0.53563E-02 -0.57714E-02 -0.55763E-02 -0.48534E-02
 -0.39782E-02 -0.33023E-02 -0.28418E-02 -0.23064E-02 -0.14343E-02 -0.27156E-03
  0.87185E-03  0.16796E-02  0.20135E-02  0.19031E-02  0.14519E-02  0.78251E-03
  0.26235E-04 -0.69610E-03 -0.13005E-02 -0.17462E-02 -0.20247E-02 -0.21557E-02
 -0.21877E-02 -0.21805E-02  0.10629E-02  0.13791E-02  0.15370E-02  0.14325E-02
  0.10942E-02  0.63436E-03  0.15144E-03 -0.32452E-03 -0.81742E-03 -0.13652E-02
 -0.19986E-02 -0.27428E-02 -0.36275E-02 -0.46991E-02 -0.60034E-02 -0.75027E-02
 -0.89734E-02 -0.10035E-01 -0.10393E-01 -0.10125E-01 -0.96753E-02 -0.94760E-02
 -0.95365E-02 -0.94293E-02 -0.87015E-02 -0.72888E-02 -0.55466E-02 -0.39464E-02
 -0.27852E-02 -0.21252E-02 -0.18903E-02 -0.19585E-02 -0.21992E-02 -0.24964E-02
 -0.27668E-02 -0.29546E-02 -0.30114E-02 -0.29074E-02 -0.26782E-02 -0.24489E-02
  0.65689E-03  0.11310E-02  0.15488E-02  0.16994E-02  0.15137E-02  0.10692E-02
  0.49533E-03 -0.12224E-03 -0.77013E-03 -0.14814E-02 -0.23037E-02 -0.32839E-02
 -0.44660E-02 -0.58918E-02 -0.75832E-02 -0.94738E-02 -0.11328E-01 -0.12779E-01
 -0.13563E-01 -0.13778E-01 -0.13878E-01 -0.14271E-01 -0.14907E-01 -0.15255E-01
 -0.14755E-01 -0.13282E-01 -0.11208E-01 -0.90828E-02 -0.72938E-02 -0.59703E-02
 -0.50775E-02 -0.45225E-02 -0.42004E-02 -0.40119E-02 -0.38766E-02 -0.37241E-02
 -0.34789E-02 -0.30883E-02 -0.26007E-02 -0.22066E-02  0.29162E-03  0.85781E-03
  0.14521E-02  0.18029E-02  0.17726E-02  0.14018E-02  0.82592E-03  0.15849E-03
 -0.56559E-03 -0.13748E-02 -0.23245E-02 -0.34738E-02 -0.48743E-02 -0.65598E-02
 -0.85242E-02 -0.10680E-01 -0.12818E-01 -0.14653E-01 -0.15998E-01 -0.16949E-01
 -0.17840E-01 -0.18916E-01 -0.20010E-01 -0.20573E-01 -0.20094E-01 -0.18502E-01
 -0.16190E-01 -0.13704E-01 -0.11434E-01 -0.95324E-02 -0.80066E-02 -0.68126E-02
 -0.58871E-02 -0.51557E-02 -0.45428E-02 -0.39700E-02 -0.33526E-02 -0.26416E-02
 -0.19104E-02 -0.13935E-02  0.11952E-03  0.67147E-03  0.12991E-02  0.17338E-02
  0.18165E-02  0.15569E-02  0.10679E-02  0.45165E-03 -0.26098E-03 -0.10987E-02
 -0.21152E-02 -0.33705E-02 -0.49219E-02 -0.68031E-02 -0.89955E-02 -0.11407E-01
 -0.13871E-01 -0.16200E-01 -0.18278E-01 -0.20148E-01 -0.21944E-01 -0.23674E-01
 -0.25052E-01 -0.25595E-01 -0.24955E-01 -0.23182E-01 -0.20675E-01 -0.17917E-01
 -0.15242E-01 -0.12806E-01 -0.10664E-01 -0.88255E-02 -0.72683E-02 -0.59433E-02
 -0.47885E-02 -0.37351E-02 -0.27122E-02 -0.16905E-02 -0.76122E-03 -0.16284E-03
  0.12059E-03  0.57725E-03  0.11249E-02  0.15456E-02  0.16972E-02  0.15670E-02
  0.12235E-02  0.72782E-03  0.87266E-04 -0.73022E-03 -0.17690E-02 -0.30818E-02
 -0.47320E-02 -0.67677E-02 -0.91810E-02 -0.11891E-01 -0.14766E-01 -0.17677E-01
 -0.20536E-01 -0.23301E-01 -0.25912E-01 -0.28174E-01 -0.29736E-01 -0.30219E-01
 -0.29445E-01 -0.27554E-01 -0.24913E-01 -0.21916E-01 -0.18846E-01 -0.15881E-01
 -0.13129E-01 -0.10648E-01 -0.84416E-02 -0.64788E-02 -0.47225E-02 -0.31379E-02
 -0.16932E-02 -0.38945E-03  0.68034E-03  0.13147E-02  0.18116E-03  0.51739E-03
  0.94406E-03  0.13092E-02  0.15042E-02  0.14992E-02  0.13126E-02  0.95588E-03
  0.40897E-03 -0.36407E-03 -0.13984E-02 -0.27401E-02 -0.44602E-02 -0.66292E-02
 -0.92653E-02 -0.12309E-01 -0.15647E-01 -0.19159E-01 -0.22736E-01 -0.26249E-01
 -0.29501E-01 -0.32193E-01 -0.33965E-01 -0.34527E-01 -0.33793E-01 -0.31918E-01
 -0.29200E-01 -0.25957E-01 -0.22464E-01 -0.18947E-01 -0.15576E-01 -0.12441E-01
 -0.95606E-02 -0.69183E-02 -0.45077E-02 -0.23423E-02 -0.44533E-03  0.11421E-02
  0.23312E-02  0.29781E-02  0.21256E-03  0.44160E-03  0.75865E-03  0.10673E-02
  0.12888E-02  0.13794E-02  0.13169E-02  0.10746E-02  0.61336E-03 -0.10799E-03
 -0.11266E-02 -0.24930E-02 -0.42860E-02 -0.65912E-02 -0.94489E-02 -0.12822E-01
 -0.16612E-01 -0.20687E-01 -0.24893E-01 -0.29030E-01 -0.32825E-01 -0.35941E-01
 -0.38035E-01 -0.38860E-01 -0.38339E-01 -0.36582E-01 -0.33815E-01 -0.30318E-01
 -0.26385E-01 -0.22295E-01 -0.18268E-01 -0.14428E-01 -0.10817E-01 -0.74441E-02
 -0.43344E-02 -0.15407E-02  0.86385E-03  0.27933E-02  0.41519E-02  0.48435E-02
  0.20213E-03  0.33604E-03  0.56075E-03  0.81596E-03  0.10405E-02  0.11798E-02
  0.11851E-02  0.10104E-02  0.60741E-03 -0.74269E-04 -0.10897E-02 -0.25063E-02
 -0.44067E-02 -0.68717E-02 -0.99450E-02 -0.13611E-01 -0.17793E-01 -0.22364E-01
 -0.27138E-01 -0.31862E-01 -0.36216E-01 -0.39842E-01 -0.42398E-01 -0.43628E-01
 -0.43420E-01 -0.41826E-01 -0.39028E-01 -0.35295E-01 -0.30939E-01 -0.26267E-01
 -0.21529E-01 -0.16889E-01 -0.12444E-01 -0.82578E-02 -0.43901E-02 -0.91177E-03
  0.20775E-02  0.44515E-02  0.60887E-02  0.69109E-02  0.18611E-03  0.20616E-03
  0.32888E-03  0.51497E-03  0.70959E-03  0.84730E-03  0.86345E-03  0.70240E-03
  0.31064E-03 -0.37664E-03 -0.14387E-02 -0.29595E-02 -0.50159E-02 -0.76683E-02
 -0.10953E-01 -0.14875E-01 -0.19394E-01 -0.24402E-01 -0.29707E-01 -0.35025E-01
 -0.40003E-01 -0.44257E-01 -0.47415E-01 -0.49176E-01 -0.49369E-01 -0.47989E-01
 -0.45190E-01 -0.41242E-01 -0.36472E-01 -0.31196E-01 -0.25676E-01 -0.20122E-01
 -0.14708E-01 -0.95808E-02 -0.48465E-02 -0.58839E-03  0.30854E-02  0.60193E-02
  0.80553E-02  0.91065E-02  0.20405E-03  0.52065E-04  0.28758E-04  0.10746E-03
  0.23021E-03  0.31831E-03  0.29273E-03  0.86772E-04 -0.36437E-03 -0.11407E-02
 -0.23345E-02 -0.40286E-02 -0.62835E-02 -0.91446E-02 -0.12651E-01 -0.16827E-01
 -0.21652E-01 -0.27030E-01 -0.32775E-01 -0.38617E-01 -0.44213E-01 -0.49174E-01
 -0.53095E-01 -0.55599E-01 -0.56409E-01 -0.55417E-01 -0.52714E-01 -0.48565E-01
 -0.43332E-01 -0.37369E-01 -0.30974E-01 -0.24397E-01 -0.17880E-01 -0.11650E-01
 -0.58813E-02 -0.69306E-03  0.37903E-02  0.73920E-02  0.99239E-02  0.11282E-01
  0.27198E-03 -0.14471E-03 -0.38327E-03 -0.46588E-03 -0.46621E-03 -0.48305E-03
 -0.61247E-03 -0.93769E-03 -0.15409E-02 -0.25121E-02 -0.39356E-02 -0.58713E-02
 -0.83622E-02 -0.11457E-01 -0.15205E-01 -0.19623E-01 -0.24654E-01 -0.30185E-01
 -0.36073E-01 -0.42149E-01 -0.48185E-01 -0.53858E-01 -0.58744E-01 -0.62360E-01
 -0.64247E-01 -0.64083E-01 -0.61787E-01 -0.57562E-01 -0.51822E-01 -0.45045E-01
 -0.37642E-01 -0.29931E-01 -0.22191E-01 -0.14700E-01 -0.77068E-02 -0.14045E-02
  0.40357E-02  0.84157E-02  0.11530E-01  0.13260E-01  0.37152E-03 -0.42991E-03
 -0.96174E-03 -0.12584E-02 -0.14348E-02 -0.16259E-02 -0.19476E-02 -0.24960E-02
 -0.33638E-02 -0.46384E-02 -0.63816E-02 -0.86267E-02 -0.11408E-01 -0.14774E-01
 -0.18743E-01 -0.23239E-01 -0.28114E-01 -0.33259E-01 -0.38692E-01 -0.44499E-01
 -0.50680E-01 -0.57021E-01 -0.63082E-01 -0.68259E-01 -0.71863E-01 -0.73254E-01
 -0.72022E-01 -0.68158E-01 -0.62075E-01 -0.54431E-01 -0.45875E-01 -0.36891E-01
 -0.27811E-01 -0.18929E-01 -0.10547E-01 -0.29515E-02  0.36111E-02  0.89088E-02
  0.12719E-01  0.14901E-01  0.47095E-03 -0.85863E-03 -0.17559E-02 -0.22988E-02
 -0.26905E-02 -0.31327E-02 -0.37639E-02 -0.46752E-02 -0.59428E-02 -0.76316E-02
 -0.97815E-02 -0.12418E-01 -0.15571E-01 -0.19231E-01 -0.23263E-01 -0.27401E-01
 -0.31420E-01 -0.35395E-01 -0.39736E-01 -0.44924E-01 -0.51155E-01 -0.58204E-01
 -0.65537E-01 -0.72472E-01 -0.78210E-01 -0.81843E-01 -0.82530E-01 -0.79820E-01
 -0.73910E-01 -0.65575E-01 -0.55800E-01 -0.45392E-01 -0.34841E-01 -0.24461E-01
 -0.14570E-01 -0.55284E-02  0.23308E-02  0.87213E-02  0.13377E-01  0.16106E-01
  0.61099E-03 -0.14079E-02 -0.27358E-02 -0.35414E-02 -0.41807E-02 -0.49609E-02
 -0.60434E-02 -0.74858E-02 -0.93119E-02 -0.11542E-01 -0.14205E-01 -0.17340E-01
 -0.20948E-01 -0.24848E-01 -0.28609E-01 -0.31744E-01 -0.34160E-01 -0.36464E-01
 -0.39721E-01 -0.44754E-01 -0.51605E-01 -0.59622E-01 -0.68005E-01 -0.76165E-01
 -0.83586E-01 -0.89448E-01 -0.92557E-01 -0.91808E-01 -0.86826E-01 -0.78244E-01
 -0.67356E-01 -0.55432E-01 -0.43282E-01 -0.31309E-01 -0.19833E-01 -0.92451E-02
  0.53618E-04  0.77085E-02  0.13371E-01  0.16746E-01  0.10022E-02 -0.18660E-02
 -0.36981E-02 -0.48136E-02 -0.57820E-02 -0.70353E-02 -0.87394E-02 -0.10890E-01
 -0.13437E-01 -0.16351E-01 -0.19660E-01 -0.23418E-01 -0.27531E-01 -0.31525E-01
 -0.34607E-01 -0.36225E-01 -0.36812E-01 -0.37932E-01 -0.41399E-01 -0.47979E-01
 -0.56836E-01 -0.66259E-01 -0.74980E-01 -0.82839E-01 -0.90250E-01 -0.97106E-01
 -0.10219E+00 -0.10366E+00 -0.10021E+00 -0.91933E-01 -0.80212E-01 -0.66806E-01
 -0.52982E-01 -0.39359E-01 -0.26289E-01 -0.14162E-01 -0.33919E-02  0.56289E-02
  0.12449E-01  0.16625E-01  0.19745E-02 -0.18667E-02 -0.43011E-02 -0.58619E-02
 -0.73578E-02 -0.93097E-02 -0.11835E-01 -0.14846E-01 -0.18236E-01 -0.21959E-01
 -0.26056E-01 -0.30559E-01 -0.35196E-01 -0.39134E-01 -0.41301E-01 -0.41408E-01
 -0.40875E-01 -0.42486E-01 -0.48591E-01 -0.59197E-01 -0.71736E-01 -0.82866E-01
 -0.90806E-01 -0.96231E-01 -0.10114E+00 -0.10680E+00 -0.11240E+00 -0.11550E+00
 -0.11365E+00 -0.10604E+00 -0.93802E-01 -0.79057E-01 -0.63577E-01 -0.48327E-01
 -0.33779E-01 -0.20297E-01 -0.82050E-02  0.21682E-02  0.10309E-01  0.15578E-01
  0.37124E-02 -0.11541E-02 -0.43078E-02 -0.65410E-02 -0.88692E-02 -0.11807E-01
 -0.15339E-01 -0.19290E-01 -0.23561E-01 -0.28158E-01 -0.33154E-01 -0.38513E-01
 -0.43719E-01 -0.47598E-01 -0.48999E-01 -0.48245E-01 -0.48021E-01 -0.52272E-01
 -0.63392E-01 -0.79937E-01 -0.97086E-01 -0.10974E+00 -0.11581E+00 -0.11711E+00
 -0.11750E+00 -0.11991E+00 -0.12427E+00 -0.12780E+00 -0.12701E+00 -0.12001E+00
 -0.10743E+00 -0.91504E-01 -0.74468E-01 -0.57723E-01 -0.41948E-01 -0.27464E-01
 -0.14372E-01 -0.27701E-02  0.68556E-02  0.13645E-01  0.59916E-02  0.13123E-03
 -0.38469E-02 -0.69897E-02 -0.10434E-01 -0.14571E-01 -0.19189E-01 -0.24047E-01
 -0.29136E-01 -0.34599E-01 -0.40558E-01 -0.46877E-01 -0.52781E-01 -0.56842E-01
 -0.58021E-01 -0.57406E-01 -0.58861E-01 -0.67097E-01 -0.84041E-01 -0.10653E+00
 -0.12770E+00 -0.14119E+00 -0.14496E+00 -0.14195E+00 -0.13758E+00 -0.13606E+00
 -0.13811E+00 -0.14090E+00 -0.14026E+00 -0.13341E+00 -0.12037E+00 -0.10332E+00
 -0.84859E-01 -0.66820E-01 -0.50127E-01 -0.35035E-01 -0.21314E-01 -0.86839E-02
  0.24981E-02  0.11152E-01  0.82468E-02  0.14984E-02 -0.33568E-02 -0.75402E-02
 -0.12194E-01 -0.17519E-01 -0.23115E-01 -0.28733E-01 -0.34524E-01 -0.40798E-01
 -0.47739E-01 -0.55113E-01 -0.61940E-01 -0.66640E-01 -0.68345E-01 -0.68743E-01
 -0.72420E-01 -0.84299E-01 -0.10561E+00 -0.13187E+00 -0.15508E+00 -0.16856E+00
 -0.17066E+00 -0.16502E+00 -0.15765E+00 -0.15331E+00 -0.15314E+00 -0.15453E+00
 -0.15313E+00 -0.14569E+00 -0.13181E+00 -0.11359E+00 -0.93842E-01 -0.74712E-01
 -0.57330E-01 -0.41878E-01 -0.27786E-01 -0.14368E-01 -0.18017E-02  0.86640E-02
  0.99886E-02  0.25302E-02 -0.31682E-02 -0.83492E-02 -0.14048E-01 -0.20289E-01
 -0.26588E-01 -0.32772E-01 -0.39159E-01 -0.46195E-01 -0.54101E-01 -0.62597E-01
 -0.70609E-01 -0.76497E-01 -0.79455E-01 -0.81341E-01 -0.86805E-01 -0.10050E+00
 -0.12312E+00 -0.14979E+00 -0.17265E+00 -0.18560E+00 -0.18750E+00 -0.18193E+00
 -0.17445E+00 -0.16942E+00 -0.16798E+00 -0.16786E+00 -0.16497E+00 -0.15615E+00
 -0.14096E+00 -0.12146E+00 -0.10054E+00 -0.80481E-01 -0.62485E-01 -0.46673E-01
 -0.32264E-01 -0.18306E-01 -0.48181E-02  0.68858E-02  0.11164E-01  0.32640E-02
 -0.31347E-02 -0.91135E-02 -0.15513E-01 -0.22271E-01 -0.28963E-01 -0.35561E-01
 -0.42495E-01 -0.50253E-01 -0.59066E-01 -0.68687E-01 -0.78093E-01 -0.85660E-01
 -0.90467E-01 -0.94025E-01 -0.10042E+00 -0.11373E+00 -0.13453E+00 -0.15859E+00
 -0.17929E+00 -0.19168E+00 -0.19491E+00 -0.19183E+00 -0.18674E+00 -0.18294E+00
 -0.18126E+00 -0.17971E+00 -0.17481E+00 -0.16394E+00 -0.14700E+00 -0.12617E+00
 -0.10427E+00 -0.83450E-01 -0.64822E-01 -0.48484E-01 -0.33665E-01 -0.19387E-01
 -0.55966E-02  0.64646E-02  0.12072E-01  0.40958E-02 -0.27462E-02 -0.92341E-02
 -0.15972E-01 -0.22899E-01 -0.29770E-01 -0.36709E-01 -0.44171E-01 -0.52583E-01
 -0.62171E-01 -0.72806E-01 -0.83665E-01 -0.93226E-01 -0.10032E+00 -0.10575E+00
 -0.11256E+00 -0.12413E+00 -0.14128E+00 -0.16111E+00 -0.17885E+00 -0.19080E+00
 -0.19619E+00 -0.19674E+00 -0.19514E+00 -0.19344E+00 -0.19193E+00 -0.18888E+00
 -0.18155E+00 -0.16818E+00 -0.14930E+00 -0.12726E+00 -0.10469E+00 -0.83375E-01
 -0.64177E-01 -0.47209E-01 -0.31908E-01 -0.17505E-01 -0.39628E-02  0.76652E-02
  0.12943E-01  0.53036E-02 -0.16393E-02 -0.83230E-02 -0.15119E-01 -0.22017E-01
 -0.28968E-01 -0.36204E-01 -0.44118E-01 -0.53028E-01 -0.63156E-01 -0.74551E-01
 -0.86694E-01 -0.98277E-01 -0.10792E+00 -0.11557E+00 -0.12306E+00 -0.13297E+00
 -0.14639E+00 -0.16197E+00 -0.17677E+00 -0.18829E+00 -0.19565E+00 -0.19945E+00
 -0.20091E+00 -0.20091E+00 -0.19919E+00 -0.19423E+00 -0.18413E+00 -0.16813E+00
 -0.14747E+00 -0.12463E+00 -0.10187E+00 -0.80473E-01 -0.60990E-01 -0.43555E-01
 -0.27906E-01 -0.13599E-01 -0.66353E-03  0.10090E-01  0.13665E-01  0.67182E-02
  0.30577E-04 -0.65514E-02 -0.13210E-01 -0.19979E-01 -0.26940E-01 -0.34353E-01
 -0.42518E-01 -0.51656E-01 -0.61998E-01 -0.73770E-01 -0.86784E-01 -0.10006E+00
 -0.11218E+00 -0.12241E+00 -0.13143E+00 -0.14086E+00 -0.15190E+00 -0.16434E+00
 -0.17677E+00 -0.18764E+00 -0.19602E+00 -0.20168E+00 -0.20474E+00 -0.20514E+00
 -0.20222E+00 -0.19476E+00 -0.18173E+00 -0.16339E+00 -0.14152E+00 -0.11853E+00
 -0.96196E-01 -0.75279E-01 -0.56027E-01 -0.38599E-01 -0.23003E-01 -0.90959E-02
  0.30237E-02  0.12779E-01  0.13918E-01  0.78666E-02  0.17169E-02 -0.45117E-02
 -0.10874E-01 -0.17411E-01 -0.24240E-01 -0.31589E-01 -0.39684E-01 -0.48703E-01
 -0.58898E-01 -0.70600E-01 -0.83890E-01 -0.98176E-01 -0.11227E+00 -0.12507E+00
 -0.13637E+00 -0.14683E+00 -0.15734E+00 -0.16825E+00 -0.17913E+00 -0.18912E+00
 -0.19737E+00 -0.20320E+00 -0.20604E+00 -0.20526E+00 -0.20006E+00 -0.18968E+00
 -0.17400E+00 -0.15407E+00 -0.13191E+00 -0.10959E+00 -0.88314E-01 -0.68443E-01
 -0.50039E-01 -0.33271E-01 -0.18299E-01 -0.51695E-02  0.59731E-02  0.14735E-01
  0.13488E-01  0.83604E-02  0.29045E-02 -0.27890E-02 -0.87030E-02 -0.14852E-01
 -0.21323E-01 -0.28292E-01 -0.35955E-01 -0.44509E-01 -0.54216E-01 -0.65421E-01
 -0.78348E-01 -0.92765E-01 -0.10787E+00 -0.12262E+00 -0.13625E+00 -0.14863E+00
 -0.16006E+00 -0.17088E+00 -0.18104E+00 -0.19008E+00 -0.19730E+00 -0.20188E+00
 -0.20299E+00 -0.19983E+00 -0.19179E+00 -0.17873E+00 -0.16127E+00 -0.14091E+00
 -0.11953E+00 -0.98635E-01 -0.78956E-01 -0.60609E-01 -0.43612E-01 -0.28124E-01
 -0.14329E-01 -0.23419E-02  0.76735E-02  0.15443E-01  0.12399E-01  0.81063E-02
  0.33809E-02 -0.16715E-02 -0.69976E-02 -0.12577E-01 -0.18449E-01 -0.24744E-01
 -0.31669E-01 -0.39463E-01 -0.48392E-01 -0.58745E-01 -0.70762E-01 -0.84459E-01
 -0.99446E-01 -0.11495E+00 -0.13009E+00 -0.14420E+00 -0.15701E+00 -0.16847E+00
 -0.17847E+00 -0.18664E+00 -0.19238E+00 -0.19495E+00 -0.19361E+00 -0.18778E+00
 -0.17727E+00 -0.16252E+00 -0.14463E+00 -0.12512E+00 -0.10545E+00 -0.86560E-01
 -0.68840E-01 -0.52361E-01 -0.37179E-01 -0.23414E-01 -0.11183E-01 -0.59545E-03
  0.81831E-02  0.14943E-01  0.10809E-01  0.72232E-02  0.31952E-02 -0.11695E-02
 -0.57994E-02 -0.10652E-01 -0.15738E-01 -0.21163E-01 -0.27141E-01 -0.33948E-01
 -0.41850E-01 -0.51071E-01 -0.61804E-01 -0.74162E-01 -0.88044E-01 -0.10301E+00
 -0.11830E+00 -0.13311E+00 -0.14675E+00 -0.15874E+00 -0.16865E+00 -0.17601E+00
 -0.18025E+00 -0.18081E+00 -0.17726E+00 -0.16943E+00 -0.15760E+00 -0.14259E+00
 -0.12565E+00 -0.10801E+00 -0.90647E-01 -0.74082E-01 -0.58554E-01 -0.44186E-01
 -0.31070E-01 -0.19260E-01 -0.87829E-02  0.28424E-03  0.77778E-02  0.13525E-01
  0.88832E-02  0.58840E-02  0.24967E-02 -0.11706E-02 -0.50378E-02 -0.90622E-02
 -0.13254E-01 -0.17707E-01 -0.22624E-01 -0.28279E-01 -0.34940E-01 -0.42809E-01
 -0.52037E-01 -0.62738E-01 -0.74932E-01 -0.88408E-01 -0.10264E+00 -0.11688E+00
 -0.13030E+00 -0.14211E+00 -0.15161E+00 -0.15814E+00 -0.16115E+00 -0.16027E+00
 -0.15539E+00 -0.14675E+00 -0.13495E+00 -0.12097E+00 -0.10589E+00 -0.90634E-01
 -0.75795E-01 -0.61687E-01 -0.48511E-01 -0.36422E-01 -0.25495E-01 -0.15708E-01
 -0.70263E-02  0.49129E-03  0.66946E-02  0.11445E-01  0.67750E-02  0.42637E-02
  0.14554E-02 -0.15337E-02 -0.46191E-02 -0.77720E-02 -0.11022E-01 -0.14463E-01
 -0.18263E-01 -0.22666E-01 -0.27934E-01 -0.34289E-01 -0.41884E-01 -0.50819E-01
 -0.61127E-01 -0.72695E-01 -0.85171E-01 -0.97946E-01 -0.11022E+00 -0.12112E+00
 -0.12977E+00 -0.13543E+00 -0.13757E+00 -0.13596E+00 -0.13073E+00 -0.12235E+00
 -0.11158E+00 -0.99317E-01 -0.86446E-01 -0.73639E-01 -0.61310E-01 -0.49700E-01
 -0.38978E-01 -0.29251E-01 -0.20524E-01 -0.12724E-01 -0.58036E-02  0.18167E-03
  0.51130E-02  0.88966E-02  0.46647E-02  0.25561E-02  0.25575E-03 -0.21070E-02
 -0.44414E-02 -0.67319E-02 -0.90332E-02 -0.11446E-01 -0.14114E-01 -0.17237E-01
 -0.21059E-01 -0.25819E-01 -0.31705E-01 -0.38835E-01 -0.47241E-01 -0.56838E-01
 -0.67361E-01 -0.78326E-01 -0.89040E-01 -0.98654E-01 -0.10627E+00 -0.11112E+00
 -0.11267E+00 -0.11080E+00 -0.10580E+00 -0.98239E-01 -0.88883E-01 -0.78512E-01
 -0.67832E-01 -0.57378E-01 -0.47496E-01 -0.38380E-01 -0.30121E-01 -0.22724E-01
 -0.16120E-01 -0.10221E-01 -0.49977E-02 -0.49425E-03  0.32193E-02  0.60958E-02
  0.27396E-02  0.95428E-03 -0.92525E-03 -0.27457E-02 -0.44016E-02 -0.58805E-02
 -0.72545E-02 -0.86435E-02 -0.10193E-01 -0.12078E-01 -0.14501E-01 -0.17686E-01
 -0.21844E-01 -0.27141E-01 -0.33649E-01 -0.41313E-01 -0.49934E-01 -0.59144E-01
 -0.68372E-01 -0.76829E-01 -0.83588E-01 -0.87787E-01 -0.88886E-01 -0.86847E-01
 -0.82102E-01 -0.75361E-01 -0.67376E-01 -0.58821E-01 -0.50250E-01 -0.42089E-01
 -0.34611E-01 -0.27929E-01 -0.22027E-01 -0.16822E-01 -0.12211E-01 -0.81178E-02
 -0.45123E-02 -0.14003E-02  0.12054E-02  0.32879E-02  0.11370E-02 -0.40281E-03
 -0.19613E-02 -0.33405E-02 -0.44096E-02 -0.51522E-02 -0.56523E-02 -0.60553E-02
 -0.65334E-02 -0.72588E-02 -0.83935E-02 -0.10108E-01 -0.12607E-01 -0.16097E-01
 -0.20716E-01 -0.26486E-01 -0.33310E-01 -0.40975E-01 -0.49051E-01 -0.56772E-01
 -0.63075E-01 -0.66889E-01 -0.67569E-01 -0.65171E-01 -0.60379E-01 -0.54140E-01
 -0.47291E-01 -0.40415E-01 -0.33894E-01 -0.27988E-01 -0.22837E-01 -0.18441E-01
 -0.14703E-01 -0.11503E-01 -0.87454E-02 -0.63566E-02 -0.42696E-02 -0.24217E-02
 -0.77155E-03  0.67133E-03 -0.99122E-04 -0.14617E-02 -0.27894E-02 -0.38162E-02
 -0.43810E-02 -0.44714E-02 -0.41868E-02 -0.36945E-02 -0.31931E-02 -0.28638E-02
 -0.28380E-02 -0.32342E-02 -0.42264E-02 -0.60401E-02 -0.88684E-02 -0.12821E-01
 -0.17957E-01 -0.24266E-01 -0.31483E-01 -0.38830E-01 -0.45013E-01 -0.48651E-01
 -0.48927E-01 -0.46007E-01 -0.40899E-01 -0.34884E-01 -0.28952E-01 -0.23610E-01
 -0.19031E-01 -0.15254E-01 -0.12254E-01 -0.99283E-02 -0.81330E-02 -0.67486E-02
 -0.56931E-02 -0.48756E-02 -0.41684E-02 -0.34355E-02 -0.25902E-02 -0.16443E-02
 -0.10291E-02 -0.22455E-02 -0.33850E-02 -0.41050E-02 -0.42220E-02 -0.37477E-02
 -0.28084E-02 -0.15790E-02 -0.25585E-03  0.98636E-03  0.20320E-02  0.27852E-02
  0.30902E-02  0.27282E-02  0.14918E-02 -0.79594E-03 -0.43472E-02 -0.93665E-02
 -0.15748E-01 -0.22704E-01 -0.28743E-01 -0.32218E-01 -0.32165E-01 -0.28831E-01
 -0.23494E-01 -0.17727E-01 -0.12661E-01 -0.87339E-02 -0.59165E-02 -0.40375E-02
 -0.29300E-02 -0.24243E-02 -0.23523E-02 -0.25874E-02 -0.30379E-02 -0.35870E-02
 -0.40638E-02 -0.42865E-02 -0.41333E-02 -0.36063E-02 -0.17819E-02 -0.28213E-02
 -0.37447E-02 -0.41519E-02 -0.38572E-02 -0.29165E-02 -0.14902E-02  0.25893E-03
  0.21793E-02  0.41353E-02  0.60212E-02  0.77287E-02  0.90951E-02  0.99197E-02
  0.10017E-01  0.91852E-02  0.71077E-02  0.34374E-02 -0.18295E-02 -0.79392E-02
 -0.13379E-01 -0.16466E-01 -0.16214E-01 -0.12879E-01 -0.78041E-02 -0.26509E-02
  0.14013E-02  0.39696E-02  0.52251E-02  0.54809E-02  0.49857E-02  0.39385E-02
  0.25285E-02  0.91737E-03 -0.76883E-03 -0.23991E-02 -0.38072E-02 -0.48125E-02
 -0.52734E-02 -0.51598E-02 -0.24575E-02 -0.32517E-02 -0.38963E-02 -0.39732E-02
 -0.33148E-02 -0.20264E-02 -0.29821E-03  0.17367E-02  0.40025E-02  0.64302E-02
  0.89265E-02  0.11351E-01  0.13518E-01  0.15245E-01  0.16379E-01  0.16721E-01
  0.15929E-01  0.13640E-01  0.98441E-02  0.52088E-02  0.10176E-02 -0.13334E-02
 -0.10098E-02  0.18099E-02  0.60015E-02  0.10081E-01  0.12941E-01  0.14220E-01
  0.14136E-01  0.13061E-01  0.11274E-01  0.89781E-02  0.63840E-02  0.37047E-02
  0.11115E-02 -0.12686E-02 -0.33195E-02 -0.49106E-02 -0.59037E-02 -0.62236E-02
 -0.30208E-02 -0.35508E-02 -0.39174E-02 -0.37144E-02 -0.27953E-02 -0.12993E-02
  0.56536E-03  0.26973E-02  0.50969E-02  0.77649E-02  0.10623E-01  0.13499E-01
  0.16181E-01  0.18496E-01  0.20310E-01  0.21431E-01  0.21564E-01  0.20474E-01
  0.18272E-01  0.15516E-01  0.13055E-01  0.11721E-01  0.12046E-01  0.14009E-01
  0.16934E-01  0.19731E-01  0.21435E-01  0.21654E-01  0.20551E-01  0.18493E-01
  0.15765E-01  0.12570E-01  0.91369E-02  0.57291E-02  0.25626E-02 -0.24709E-03
 -0.26560E-02 -0.46156E-02 -0.60184E-02 -0.67438E-02  0.80475E-03  0.10666E-02
  0.12670E-02  0.14531E-02  0.16583E-02  0.18787E-02  0.20960E-02  0.23125E-02
  0.25577E-02  0.28715E-02  0.32916E-02  0.38512E-02  0.45769E-02  0.54855E-02
  0.65929E-02  0.79201E-02  0.94579E-02  0.11099E-01  0.12620E-01  0.13794E-01
  0.14571E-01  0.15138E-01  0.15742E-01  0.16406E-01  0.16845E-01  0.16677E-01
  0.15737E-01  0.14177E-01  0.12303E-01  0.10349E-01  0.84214E-02  0.65740E-02
  0.48797E-02  0.34213E-02  0.22503E-02  0.13619E-02  0.68685E-03  0.11218E-03
 -0.45397E-03 -0.10093E-02  0.11022E-02  0.12907E-02  0.14478E-02  0.15819E-02
  0.16932E-02  0.17717E-02  0.18151E-02  0.18401E-02  0.18742E-02  0.19397E-02
  0.20488E-02  0.22087E-02  0.24212E-02  0.26758E-02  0.29574E-02  0.32696E-02
  0.36462E-02  0.41180E-02  0.46589E-02  0.51870E-02  0.56530E-02  0.61259E-02
  0.67464E-02  0.75525E-02  0.83598E-02  0.88520E-02  0.88080E-02  0.82357E-02
  0.73000E-02  0.61655E-02  0.49280E-02  0.36542E-02  0.24269E-02  0.13311E-02
  0.41662E-03 -0.31254E-03 -0.88153E-03 -0.13207E-02 -0.16479E-02 -0.18658E-02
  0.12700E-02  0.14841E-02  0.16936E-02  0.18387E-02  0.18740E-02  0.17913E-02
  0.16209E-02  0.14082E-02  0.11846E-02  0.95644E-03  0.71314E-03  0.43928E-03
  0.11519E-03 -0.29124E-03 -0.81936E-03 -0.14802E-02 -0.22103E-02 -0.28719E-02
 -0.33268E-02 -0.35225E-02 -0.34887E-02 -0.32407E-02 -0.27181E-02 -0.18612E-02
 -0.75102E-03  0.36606E-03  0.12183E-02  0.16664E-02  0.17280E-02  0.14899E-02
  0.10347E-02  0.43799E-03 -0.21567E-03 -0.84932E-03 -0.14200E-02 -0.19121E-02
 -0.23027E-02 -0.25449E-02 -0.25994E-02 -0.24933E-02  0.14403E-02  0.17246E-02
  0.20100E-02  0.21694E-02  0.21190E-02  0.18602E-02  0.14606E-02  0.99439E-03
  0.49679E-03 -0.40482E-04 -0.64816E-03 -0.13620E-02 -0.22200E-02 -0.32683E-02
 -0.45577E-02 -0.61147E-02 -0.78866E-02 -0.97100E-02 -0.11356E-01 -0.12631E-01
 -0.13429E-01 -0.13686E-01 -0.13315E-01 -0.12256E-01 -0.10602E-01 -0.86518E-02
 -0.67830E-02 -0.52634E-02 -0.41737E-02 -0.34689E-02 -0.30701E-02 -0.29005E-02
 -0.28840E-02 -0.29543E-02 -0.30675E-02 -0.31879E-02 -0.32527E-02 -0.31710E-02
 -0.28893E-02 -0.24801E-02  0.17036E-02  0.20240E-02  0.23270E-02  0.24473E-02
  0.22855E-02  0.18561E-02  0.12508E-02  0.55692E-03 -0.19581E-03 -0.10304E-02
 -0.19932E-02 -0.31366E-02 -0.45149E-02 -0.61812E-02 -0.81834E-02 -0.10555E-01
 -0.13281E-01 -0.16243E-01 -0.19197E-01 -0.21814E-01 -0.23756E-01 -0.24728E-01
 -0.24520E-01 -0.23099E-01 -0.20698E-01 -0.17783E-01 -0.14870E-01 -0.12309E-01
 -0.10216E-01 -0.85513E-02 -0.72436E-02 -0.62315E-02 -0.54586E-02 -0.48677E-02
 -0.44056E-02 -0.40132E-02 -0.36044E-02 -0.30822E-02 -0.24178E-02 -0.17351E-02
  0.20515E-02  0.23273E-02  0.25540E-02  0.25677E-02  0.22771E-02  0.17051E-02
  0.94364E-03  0.67724E-04 -0.90994E-03 -0.20247E-02 -0.33296E-02 -0.48865E-02
 -0.67644E-02 -0.90235E-02 -0.11701E-01 -0.14816E-01 -0.18376E-01 -0.22316E-01
 -0.26416E-01 -0.30256E-01 -0.33283E-01 -0.34958E-01 -0.34936E-01 -0.33223E-01
 -0.30207E-01 -0.26517E-01 -0.22759E-01 -0.19309E-01 -0.16284E-01 -0.13666E-01
 -0.11416E-01 -0.95091E-02 -0.79107E-02 -0.65690E-02 -0.54233E-02 -0.44042E-02
 -0.34260E-02 -0.24137E-02 -0.13760E-02 -0.46975E-03  0.24256E-02  0.25836E-02
  0.26608E-02  0.25238E-02  0.21027E-02  0.14192E-02  0.54131E-03 -0.48733E-03
 -0.16762E-02 -0.30663E-02 -0.47067E-02 -0.66615E-02 -0.90147E-02 -0.11841E-01
 -0.15169E-01 -0.18987E-01 -0.23276E-01 -0.27972E-01 -0.32868E-01 -0.37518E-01
 -0.41271E-01 -0.43469E-01 -0.43699E-01 -0.41983E-01 -0.38769E-01 -0.34719E-01
 -0.30431E-01 -0.26268E-01 -0.22375E-01 -0.18807E-01 -0.15598E-01 -0.12768E-01
 -0.10296E-01 -0.81269E-02 -0.62048E-02 -0.44748E-02 -0.28801E-02 -0.13826E-02
 -0.20586E-04  0.10509E-02  0.27960E-02  0.27998E-02  0.26951E-02  0.23885E-02
  0.18339E-02  0.10432E-02  0.49237E-04 -0.11393E-02 -0.25489E-02 -0.42199E-02
 -0.61953E-02 -0.85410E-02 -0.11356E-01 -0.14733E-01 -0.18701E-01 -0.23213E-01
 -0.28183E-01 -0.33491E-01 -0.38903E-01 -0.43984E-01 -0.48114E-01 -0.50664E-01
 -0.51232E-01 -0.49820E-01 -0.46802E-01 -0.42737E-01 -0.38137E-01 -0.33355E-01
 -0.28614E-01 -0.24084E-01 -0.19897E-01 -0.16116E-01 -0.12723E-01 -0.96638E-02
 -0.68942E-02 -0.43931E-02 -0.21506E-02 -0.17308E-03  0.14843E-02  0.26952E-02
  0.31863E-02  0.30264E-02  0.27290E-02  0.22368E-02  0.15237E-02  0.58967E-03
 -0.56329E-03 -0.19504E-02 -0.36050E-02 -0.55680E-02 -0.78879E-02 -0.10640E-01
 -0.13933E-01 -0.17865E-01 -0.22464E-01 -0.27657E-01 -0.33301E-01 -0.39195E-01
 -0.45054E-01 -0.50452E-01 -0.54851E-01 -0.57714E-01 -0.58689E-01 -0.57720E-01
 -0.55044E-01 -0.51063E-01 -0.46197E-01 -0.40812E-01 -0.35228E-01 -0.29730E-01
 -0.24532E-01 -0.19739E-01 -0.15353E-01 -0.11336E-01 -0.76654E-02 -0.43490E-02
 -0.14184E-02  0.10773E-02  0.30675E-02  0.44584E-02  0.36455E-02  0.33098E-02
  0.28012E-02  0.20921E-02  0.11713E-02  0.29514E-04 -0.13498E-02 -0.29908E-02
 -0.49275E-02 -0.72107E-02 -0.99113E-02 -0.13121E-01 -0.16940E-01 -0.21447E-01
 -0.26656E-01 -0.32494E-01 -0.38796E-01 -0.45314E-01 -0.51709E-01 -0.57545E-01
 -0.62331E-01 -0.65601E-01 -0.67022E-01 -0.66475E-01 -0.64069E-01 -0.60087E-01
 -0.54900E-01 -0.48910E-01 -0.42512E-01 -0.36057E-01 -0.29804E-01 -0.23900E-01
 -0.18404E-01 -0.13334E-01 -0.86978E-02 -0.45140E-02 -0.83228E-03  0.22659E-02
  0.46879E-02  0.63554E-02  0.42148E-02  0.36645E-02  0.29039E-02  0.19286E-02
  0.73734E-03 -0.68481E-03 -0.23626E-02 -0.43213E-02 -0.65994E-02 -0.92675E-02
 -0.12424E-01 -0.16166E-01 -0.20569E-01 -0.25673E-01 -0.31481E-01 -0.37936E-01
 -0.44886E-01 -0.52069E-01 -0.59108E-01 -0.65543E-01 -0.70889E-01 -0.74696E-01
 -0.76616E-01 -0.76463E-01 -0.74249E-01 -0.70180E-01 -0.64618E-01 -0.58009E-01
 -0.50800E-01 -0.43373E-01 -0.36005E-01 -0.28881E-01 -0.22140E-01 -0.15883E-01
 -0.10168E-01 -0.50233E-02 -0.49662E-03  0.33119E-02  0.62822E-02  0.83330E-02
  0.49174E-02  0.40804E-02  0.30018E-02  0.16945E-02  0.16133E-03 -0.16167E-02
 -0.36675E-02 -0.60202E-02 -0.87262E-02 -0.11878E-01 -0.15588E-01 -0.19938E-01
 -0.24969E-01 -0.30699E-01 -0.37136E-01 -0.44236E-01 -0.51844E-01 -0.59669E-01
 -0.67314E-01 -0.74332E-01 -0.80267E-01 -0.84692E-01 -0.87231E-01 -0.87616E-01
 -0.85736E-01 -0.81694E-01 -0.75807E-01 -0.68550E-01 -0.60447E-01 -0.51945E-01
 -0.43361E-01 -0.34918E-01 -0.26810E-01 -0.19217E-01 -0.12266E-01 -0.60151E-02
 -0.51953E-03  0.41093E-02  0.77296E-02  0.10249E-01  0.57612E-02  0.45358E-02
  0.30505E-02  0.13284E-02 -0.63220E-03 -0.28549E-02 -0.53688E-02 -0.82111E-02
 -0.11451E-01 -0.15194E-01 -0.19543E-01 -0.24554E-01 -0.30251E-01 -0.36661E-01
 -0.43794E-01 -0.51562E-01 -0.59726E-01 -0.67932E-01 -0.75817E-01 -0.83064E-01
 -0.89373E-01 -0.94410E-01 -0.97790E-01 -0.99116E-01 -0.98074E-01 -0.94533E-01
 -0.88642E-01 -0.80843E-01 -0.71760E-01 -0.62008E-01 -0.52048E-01 -0.42173E-01
 -0.32604E-01 -0.23553E-01 -0.15203E-01 -0.76780E-02 -0.10712E-02  0.44915E-02
  0.88560E-02  0.11920E-01  0.67412E-02  0.49989E-02  0.29982E-02  0.76380E-03
 -0.17225E-02 -0.44942E-02 -0.75828E-02 -0.11032E-01 -0.14919E-01 -0.19345E-01
 -0.24392E-01 -0.30108E-01 -0.36530E-01 -0.43688E-01 -0.51518E-01 -0.59763E-01
 -0.68016E-01 -0.75907E-01 -0.83274E-01 -0.90127E-01 -0.96465E-01 -0.10209E+00
 -0.10660E+00 -0.10943E+00 -0.10998E+00 -0.10777E+00 -0.10260E+00 -0.94734E-01
 -0.84826E-01 -0.73738E-01 -0.62225E-01 -0.50773E-01 -0.39649E-01 -0.29049E-01
 -0.19175E-01 -0.10224E-01 -0.23577E-02  0.42695E-02  0.94917E-02  0.13192E-01
  0.78521E-02  0.54343E-02  0.27889E-02 -0.66149E-04 -0.31796E-02 -0.66057E-02
 -0.10385E-01 -0.14564E-01 -0.19211E-01 -0.24399E-01 -0.30197E-01 -0.36676E-01
 -0.43899E-01 -0.51816E-01 -0.60120E-01 -0.68254E-01 -0.75684E-01 -0.82255E-01
 -0.88292E-01 -0.94312E-01 -0.10059E+00 -0.10694E+00 -0.11282E+00 -0.11750E+00
 -0.12020E+00 -0.12011E+00 -0.11661E+00 -0.10952E+00 -0.99351E-01 -0.87119E-01
 -0.73982E-01 -0.60800E-01 -0.48005E-01 -0.35778E-01 -0.24298E-01 -0.13807E-01
 -0.45457E-02  0.32869E-02  0.94974E-02  0.13933E-01  0.91163E-02  0.58356E-02
  0.23930E-02 -0.12107E-02 -0.50633E-02 -0.92434E-02 -0.13808E-01 -0.18813E-01
 -0.24309E-01 -0.30333E-01 -0.36951E-01 -0.44276E-01 -0.52348E-01 -0.60882E-01
 -0.69155E-01 -0.76301E-01 -0.81917E-01 -0.86471E-01 -0.91062E-01 -0.96660E-01
 -0.10347E+00 -0.11094E+00 -0.11819E+00 -0.12444E+00 -0.12902E+00 -0.13112E+00