       #
       # Generated by the Wannier90 code http://www.wannier.org
       # On  1Apr2018 at 06:43:27 
       #
CRYSTAL
PRIMVEC
   3.0715001   0.0000000   0.0000000
   0.0300198   3.0713534   0.0000000
   0.0300198   0.0297278   3.0712095
CONVVEC
   3.0715001   0.0000000   0.0000000
   0.0300198   3.0713534   0.0000000
   0.0300198   0.0297278   3.0712095
PRIMCOORD
     1  1
Sn      0.0000000   0.0000000   0.0000000


BEGIN_BLOCK_DATAGRID_3D
3D_field
BEGIN_DATAGRID_3D_UNKNOWN
    40    40    40
   -3.288117   -3.256135   -3.224770
   5.9894252   0.0000000   0.0000000
   0.0585386   5.9891391   0.0000000
   0.0585386   0.0579692   5.9888585
 -0.30511E-02 -0.36162E-02 -0.42139E-02 -0.43905E-02 -0.38878E-02 -0.27552E-02
 -0.11962E-02  0.64511E-03  0.27613E-02  0.52023E-02  0.79490E-02  0.10855E-01
  0.13692E-01  0.16217E-01  0.18211E-01  0.19559E-01  0.20433E-01  0.21407E-01
  0.23145E-01  0.25751E-01  0.28450E-01  0.30135E-01  0.30339E-01  0.29621E-01
  0.28929E-01  0.28674E-01  0.28473E-01  0.27662E-01  0.25868E-01  0.23122E-01
  0.19656E-01  0.15749E-01  0.11712E-01  0.78719E-02  0.44743E-02  0.15876E-02
 -0.87531E-03 -0.30086E-02 -0.47359E-02 -0.57875E-02 -0.41154E-02 -0.42901E-02
 -0.43504E-02 -0.38991E-02 -0.27886E-02 -0.11661E-02  0.75191E-03  0.28951E-02
  0.53518E-02  0.82268E-02  0.11503E-01  0.15014E-01  0.18519E-01  0.21793E-01
  0.24653E-01  0.26957E-01  0.28686E-01  0.30060E-01  0.31439E-01  0.32989E-01
  0.34465E-01  0.35444E-01  0.35808E-01  0.35861E-01  0.35916E-01  0.35859E-01
  0.35203E-01  0.33543E-01  0.30832E-01  0.27289E-01  0.23170E-01  0.18717E-01
  0.14217E-01  0.99924E-02  0.62872E-02  0.31559E-02  0.47487E-03 -0.19004E-02
 -0.39325E-02 -0.53614E-02 -0.45477E-02 -0.46034E-02 -0.44456E-02 -0.36773E-02
 -0.22060E-02 -0.24211E-03  0.19797E-02  0.44191E-02  0.72012E-02  0.10444E-01
  0.14130E-01  0.18093E-01  0.22109E-01  0.25980E-01  0.29553E-01  0.32649E-01
  0.35027E-01  0.36502E-01  0.37099E-01  0.37090E-01  0.36888E-01  0.36917E-01
  0.37469E-01  0.38531E-01  0.39656E-01  0.40106E-01  0.39276E-01  0.37033E-01
  0.33665E-01  0.29566E-01  0.25022E-01  0.20247E-01  0.15499E-01  0.11065E-01
  0.71546E-02  0.38095E-02  0.91788E-03 -0.16388E-02 -0.38022E-02 -0.53142E-02
 -0.44976E-02 -0.46870E-02 -0.46174E-02 -0.38491E-02 -0.22857E-02 -0.15328E-03
  0.22969E-02  0.50043E-02  0.80593E-02  0.11546E-01  0.15442E-01  0.19613E-01
  0.23866E-01  0.28018E-01  0.31915E-01  0.35330E-01  0.37853E-01  0.38989E-01
  0.38511E-01  0.36809E-01  0.34891E-01  0.33923E-01  0.34567E-01  0.36539E-01
  0.38738E-01  0.39903E-01  0.39309E-01  0.37005E-01  0.33497E-01  0.29293E-01
  0.24705E-01  0.19953E-01  0.15269E-01  0.10885E-01  0.69570E-02  0.35173E-02
  0.51172E-03 -0.20927E-02 -0.41780E-02 -0.54930E-02 -0.42131E-02 -0.46428E-02
 -0.48062E-02 -0.42301E-02 -0.27865E-02 -0.67422E-03  0.18584E-02  0.47063E-02
  0.78787E-02  0.11392E-01  0.15217E-01  0.19267E-01  0.23391E-01  0.27405E-01
  0.31117E-01  0.34252E-01  0.36325E-01  0.36713E-01  0.35094E-01  0.31959E-01
  0.28684E-01  0.26891E-01  0.27467E-01  0.29974E-01  0.32948E-01  0.34829E-01
  0.34807E-01  0.32978E-01  0.29904E-01  0.26113E-01  0.21944E-01  0.17637E-01
  0.13406E-01  0.94184E-02  0.57641E-02  0.24804E-02 -0.40859E-03 -0.28354E-02
 -0.46295E-02 -0.55690E-02 -0.38235E-02 -0.44522E-02 -0.48292E-02 -0.45003E-02
 -0.33156E-02 -0.14193E-02  0.97195E-03  0.37178E-02  0.67412E-02  0.99836E-02
  0.13407E-01  0.16971E-01  0.20569E-01  0.24008E-01  0.27044E-01  0.29368E-01
  0.30515E-01  0.29918E-01  0.27310E-01  0.23247E-01  0.19198E-01  0.16882E-01
  0.17227E-01  0.19782E-01  0.23040E-01  0.25427E-01  0.26111E-01  0.25130E-01
  0.22953E-01  0.20049E-01  0.16756E-01  0.13328E-01  0.99577E-02  0.67456E-02
  0.37299E-02  0.95591E-03 -0.14864E-02 -0.34592E-02 -0.47776E-02 -0.52761E-02
 -0.32749E-02 -0.40136E-02 -0.45307E-02 -0.44464E-02 -0.36139E-02 -0.21183E-02
 -0.12525E-03  0.22155E-02  0.47697E-02  0.74262E-02  0.10134E-01  0.12877E-01
  0.15576E-01  0.18029E-01  0.19965E-01  0.21080E-01  0.21002E-01  0.19333E-01
  0.15958E-01  0.11458E-01  0.71671E-02  0.46054E-02  0.45992E-02  0.67755E-02
  0.98542E-02  0.12472E-01  0.13859E-01  0.13943E-01  0.13015E-01  0.11414E-01
  0.94198E-02  0.72674E-02  0.51162E-02  0.30271E-02  0.10126E-02 -0.87696E-03
 -0.25259E-02 -0.37809E-02 -0.44836E-02 -0.45335E-02 -0.24241E-02 -0.32348E-02
 -0.38714E-02 -0.40516E-02 -0.36507E-02 -0.27080E-02 -0.13408E-02  0.31288E-03
  0.21057E-02  0.39090E-02  0.56542E-02  0.73075E-02  0.87791E-02  0.98737E-02
  0.10339E-01  0.99297E-02  0.84114E-02  0.55996E-02  0.15559E-02 -0.31517E-02
 -0.74374E-02 -0.10117E-01 -0.10542E-01 -0.89520E-02 -0.62761E-02 -0.35463E-02
 -0.14172E-02 -0.75310E-04  0.56156E-03  0.64712E-03  0.34307E-03 -0.18988E-03
 -0.82941E-03 -0.15197E-02 -0.22367E-02 -0.29283E-02 -0.34982E-02 -0.38286E-02
 -0.38115E-02 -0.33975E-02 -0.11685E-02 -0.20882E-02 -0.29032E-02 -0.34160E-02
 -0.35262E-02 -0.32481E-02 -0.26681E-02 -0.19035E-02 -0.10823E-02 -0.32408E-03
  0.27623E-03  0.62959E-03  0.60793E-03  0.32404E-04 -0.12825E-02 -0.34795E-02
 -0.66420E-02 -0.10760E-01 -0.15616E-01 -0.20662E-01 -0.25048E-01 -0.27906E-01
 -0.28747E-01 -0.27677E-01 -0.25282E-01 -0.22279E-01 -0.19215E-01 -0.16378E-01
 -0.13889E-01 -0.11791E-01 -0.10080E-01 -0.87029E-02 -0.75858E-02 -0.66596E-02
 -0.58658E-02 -0.51480E-02 -0.44497E-02 -0.37137E-02 -0.28867E-02 -0.19515E-02
  0.49038E-03 -0.61280E-03 -0.17053E-02 -0.26448E-02 -0.33474E-02 -0.38153E-02
 -0.41172E-02 -0.43501E-02 -0.46170E-02 -0.50289E-02 -0.57150E-02 -0.68266E-02
 -0.85273E-02 -0.10967E-01 -0.14252E-01 -0.18420E-01 -0.23426E-01 -0.29105E-01
 -0.35113E-01 -0.40888E-01 -0.45722E-01 -0.48942E-01 -0.50147E-01 -0.49331E-01
 -0.46841E-01 -0.43190E-01 -0.38877E-01 -0.34300E-01 -0.29751E-01 -0.25444E-01
 -0.21511E-01 -0.18007E-01 -0.14922E-01 -0.12192E-01 -0.97385E-02 -0.74935E-02
 -0.54262E-02 -0.35307E-02 -0.18036E-02 -0.25292E-03  0.24507E-02  0.10950E-02
 -0.36507E-03 -0.18184E-02 -0.31880E-02 -0.44630E-02 -0.56923E-02 -0.69552E-02
 -0.83484E-02 -0.99986E-02 -0.12072E-01 -0.14756E-01 -0.18217E-01 -0.22573E-01
 -0.27880E-01 -0.34111E-01 -0.41126E-01 -0.48627E-01 -0.56147E-01 -0.63069E-01
 -0.68720E-01 -0.72498E-01 -0.74016E-01 -0.73190E-01 -0.70229E-01 -0.65557E-01
 -0.59695E-01 -0.53169E-01 -0.46436E-01 -0.39841E-01 -0.33607E-01 -0.27859E-01
 -0.22650E-01 -0.17970E-01 -0.13753E-01 -0.99241E-02 -0.64453E-02 -0.33318E-02
 -0.62280E-03  0.16404E-02  0.45422E-02  0.28868E-02  0.10017E-02 -0.10211E-02
 -0.31059E-02 -0.52207E-02 -0.73834E-02 -0.96577E-02 -0.12158E-01 -0.15052E-01
 -0.18540E-01 -0.22810E-01 -0.28008E-01 -0.34237E-01 -0.41545E-01 -0.49871E-01
 -0.58976E-01 -0.68423E-01 -0.77609E-01 -0.85855E-01 -0.92491E-01 -0.96937E-01
 -0.98794E-01 -0.97902E-01 -0.94375E-01 -0.88571E-01 -0.81046E-01 -0.72462E-01
 -0.63458E-01 -0.54528E-01 -0.45972E-01 -0.37953E-01 -0.30567E-01 -0.23867E-01
 -0.17836E-01 -0.12401E-01 -0.75002E-02 -0.31452E-02  0.59132E-03  0.36263E-02
  0.65743E-02  0.45888E-02  0.22518E-02 -0.35622E-03 -0.31571E-02 -0.60943E-02
 -0.91520E-02 -0.12382E-01 -0.15926E-01 -0.19996E-01 -0.24818E-01 -0.30574E-01
 -0.37407E-01 -0.45429E-01 -0.54685E-01 -0.65044E-01 -0.76122E-01 -0.87313E-01
 -0.97918E-01 -0.10726E+00 -0.11475E+00 -0.11986E+00 -0.12218E+00 -0.12148E+00
 -0.11771E+00 -0.11110E+00 -0.10216E+00 -0.91632E-01 -0.80364E-01 -0.69060E-01
 -0.58170E-01 -0.47916E-01 -0.38413E-01 -0.29739E-01 -0.21914E-01 -0.14883E-01
 -0.85767E-02 -0.30000E-02  0.17528E-02  0.55621E-02  0.83867E-02  0.60458E-02
  0.32455E-02  0.68396E-04 -0.33972E-02 -0.70747E-02 -0.10931E-01 -0.15018E-01
 -0.19497E-01 -0.24601E-01 -0.30570E-01 -0.37612E-01 -0.45908E-01 -0.55582E-01
 -0.66612E-01 -0.78700E-01 -0.91262E-01 -0.10356E+00 -0.11492E+00 -0.12480E+00
 -0.13277E+00 -0.13846E+00 -0.14146E+00 -0.14141E+00 -0.13804E+00 -0.13135E+00
 -0.12167E+00 -0.10972E+00 -0.96472E-01 -0.82909E-01 -0.69743E-01 -0.57356E-01
 -0.45893E-01 -0.35399E-01 -0.25884E-01 -0.17322E-01 -0.96713E-02 -0.29451E-02
  0.27595E-02  0.73035E-02  0.98475E-02  0.71216E-02  0.38520E-02  0.14242E-03
 -0.38942E-02 -0.81659E-02 -0.12649E-01 -0.17422E-01 -0.22657E-01 -0.28580E-01
 -0.35434E-01 -0.43485E-01 -0.52971E-01 -0.63990E-01 -0.76338E-01 -0.89471E-01
 -0.10263E+00 -0.11511E+00 -0.12637E+00 -0.13615E+00 -0.14425E+00 -0.15044E+00
 -0.15432E+00 -0.15537E+00 -0.15309E+00 -0.14715E+00 -0.13767E+00 -0.12519E+00
 -0.11068E+00 -0.95316E-01 -0.80150E-01 -0.65849E-01 -0.52660E-01 -0.40583E-01
 -0.29578E-01 -0.19647E-01 -0.10804E-01 -0.30695E-02  0.34801E-02  0.87008E-02
  0.10782E-01  0.76393E-02  0.39144E-02 -0.25965E-03 -0.47328E-02 -0.93938E-02
 -0.14248E-01 -0.19431E-01 -0.25142E-01 -0.31587E-01 -0.39009E-01 -0.47720E-01
 -0.57987E-01 -0.69789E-01 -0.82669E-01 -0.95858E-01 -0.10859E+00 -0.12035E+00
 -0.13091E+00 -0.14021E+00 -0.14825E+00 -0.15491E+00 -0.15978E+00 -0.16217E+00
 -0.16135E+00 -0.15677E+00 -0.14833E+00 -0.13634E+00 -0.12159E+00 -0.10526E+00
 -0.88687E-01 -0.72876E-01 -0.58287E-01 -0.44938E-01 -0.32757E-01 -0.21768E-01
 -0.12022E-01 -0.35193E-02  0.37186E-02  0.95388E-02  0.10940E-01  0.73752E-02
  0.32723E-02 -0.12256E-02 -0.59397E-02 -0.10731E-01 -0.15630E-01 -0.20851E-01
 -0.26653E-01 -0.33244E-01 -0.40859E-01 -0.49807E-01 -0.60295E-01 -0.72108E-01
 -0.84551E-01 -0.96796E-01 -0.10830E+00 -0.11892E+00 -0.12865E+00 -0.13752E+00
 -0.14552E+00 -0.15259E+00 -0.15833E+00 -0.16197E+00 -0.16259E+00 -0.15952E+00
 -0.15256E+00 -0.14186E+00 -0.12790E+00 -0.11165E+00 -0.94514E-01 -0.77803E-01
 -0.62264E-01 -0.48052E-01 -0.35136E-01 -0.23561E-01 -0.13359E-01 -0.44387E-02
  0.32620E-02  0.95629E-02  0.10141E-01  0.62194E-02  0.19254E-02 -0.26435E-02
 -0.73232E-02 -0.11948E-01 -0.16554E-01 -0.21422E-01 -0.26891E-01 -0.33209E-01
 -0.40592E-01 -0.49284E-01 -0.59338E-01 -0.70320E-01 -0.81418E-01 -0.91990E-01
 -0.10196E+00 -0.11159E+00 -0.12095E+00 -0.12982E+00 -0.13794E+00 -0.14523E+00
 -0.15145E+00 -0.15585E+00 -0.15744E+00 -0.15559E+00 -0.15013E+00 -0.14114E+00
 -0.12877E+00 -0.11359E+00 -0.96847E-01 -0.79996E-01 -0.64085E-01 -0.49522E-01
 -0.36412E-01 -0.24822E-01 -0.14694E-01 -0.57745E-02  0.21059E-02  0.87136E-02
  0.84869E-02  0.43895E-02  0.20830E-03 -0.40723E-02 -0.83772E-02 -0.12545E-01
 -0.16588E-01 -0.20806E-01 -0.25599E-01 -0.31258E-01 -0.37979E-01 -0.45896E-01
 -0.54864E-01 -0.64267E-01 -0.73337E-01 -0.81849E-01 -0.90363E-01 -0.99564E-01
 -0.10939E+00 -0.11901E+00 -0.12761E+00 -0.13494E+00 -0.14093E+00 -0.14515E+00
 -0.14684E+00 -0.14558E+00 -0.14136E+00 -0.13423E+00 -0.12399E+00 -0.11069E+00
 -0.95210E-01 -0.79004E-01 -0.63365E-01 -0.49013E-01 -0.36253E-01 -0.25178E-01
 -0.15591E-01 -0.70461E-02  0.72162E-03  0.74080E-02  0.63843E-02  0.24007E-02
 -0.12950E-02 -0.48818E-02 -0.84559E-02 -0.11921E-01 -0.15251E-01 -0.18692E-01
 -0.22627E-01 -0.27355E-01 -0.33045E-01 -0.39721E-01 -0.47060E-01 -0.54337E-01
 -0.60947E-01 -0.67207E-01 -0.74416E-01 -0.83728E-01 -0.94884E-01 -0.10622E+00
 -0.11595E+00 -0.12327E+00 -0.12826E+00 -0.13107E+00 -0.13168E+00 -0.13021E+00
 -0.12694E+00 -0.12175E+00 -0.11400E+00 -0.10314E+00 -0.89593E-01 -0.74705E-01
 -0.59944E-01 -0.46316E-01 -0.34329E-01 -0.24099E-01 -0.15307E-01 -0.73642E-02
  0.28799E-04  0.64952E-02  0.42277E-02  0.69802E-03 -0.21532E-02 -0.46780E-02
 -0.72049E-02 -0.97749E-02 -0.12338E-01 -0.15011E-01 -0.18055E-01 -0.21710E-01
 -0.26112E-01 -0.31206E-01 -0.36564E-01 -0.41415E-01 -0.45340E-01 -0.49175E-01
 -0.54958E-01 -0.64431E-01 -0.77305E-01 -0.91074E-01 -0.10266E+00 -0.11023E+00
 -0.11374E+00 -0.11415E+00 -0.11266E+00 -0.11040E+00 -0.10793E+00 -0.10484E+00
 -0.99817E-01 -0.91695E-01 -0.80479E-01 -0.67377E-01 -0.53964E-01 -0.41438E-01
 -0.30448E-01 -0.21132E-01 -0.13134E-01 -0.58652E-02  0.91103E-03  0.67568E-02
  0.20729E-02 -0.70587E-03 -0.24507E-02 -0.36585E-02 -0.49072E-02 -0.64309E-02
 -0.81839E-02 -0.10115E-01 -0.12285E-01 -0.14809E-01 -0.17779E-01 -0.21118E-01
 -0.24364E-01 -0.26749E-01 -0.27966E-01 -0.29183E-01 -0.33030E-01 -0.41918E-01
 -0.55853E-01 -0.71816E-01 -0.85450E-01 -0.93623E-01 -0.95830E-01 -0.93805E-01
 -0.90209E-01 -0.87293E-01 -0.85908E-01 -0.85134E-01 -0.82926E-01 -0.77556E-01
 -0.68758E-01 -0.57671E-01 -0.45898E-01 -0.34697E-01 -0.24757E-01 -0.16252E-01
 -0.89112E-02 -0.23182E-02  0.35893E-02  0.83383E-02 -0.30167E-03 -0.21559E-02
 -0.26926E-02 -0.25025E-02 -0.23744E-02 -0.27428E-02 -0.35955E-02 -0.47284E-02
 -0.59887E-02 -0.73482E-02 -0.88484E-02 -0.10420E-01 -0.11636E-01 -0.11759E-01
 -0.10491E-01 -0.90386E-02 -0.10282E-01 -0.17191E-01 -0.30369E-01 -0.46883E-01
 -0.61664E-01 -0.70491E-01 -0.72263E-01 -0.69138E-01 -0.64839E-01 -0.62450E-01
 -0.62865E-01 -0.64608E-01 -0.65034E-01 -0.62122E-01 -0.55567E-01 -0.46510E-01
 -0.36505E-01 -0.26733E-01 -0.17840E-01 -0.10046E-01 -0.32731E-02  0.25999E-02
  0.73976E-02  0.10643E-01 -0.29707E-02 -0.38832E-02 -0.32988E-02 -0.18410E-02
 -0.41826E-03  0.38997E-03  0.54803E-03  0.34886E-03  0.92137E-04 -0.82472E-04
 -0.16763E-03 -0.10560E-03  0.45982E-03  0.21902E-02  0.54454E-02  0.92605E-02
  0.10956E-01  0.73653E-02 -0.27895E-02 -0.17306E-01 -0.31360E-01 -0.40400E-01
 -0.42874E-01 -0.40826E-01 -0.38166E-01 -0.38035E-01 -0.41025E-01 -0.45218E-01
 -0.47767E-01 -0.46763E-01 -0.42092E-01 -0.34929E-01 -0.26691E-01 -0.18386E-01
 -0.10572E-01 -0.35298E-02  0.26006E-02  0.76330E-02  0.11175E-01  0.12776E-01
 -0.55729E-02 -0.56591E-02 -0.42043E-02 -0.18009E-02  0.64722E-03  0.25150E-02
  0.37235E-02  0.45674E-02  0.53814E-02  0.63488E-02  0.75207E-02  0.89641E-02
  0.10955E-01  0.14026E-01  0.18570E-01  0.24007E-01  0.28245E-01  0.28399E-01
  0.22735E-01  0.12352E-01  0.92523E-03 -0.75919E-02 -0.11548E-01 -0.12412E-01
 -0.13323E-01 -0.16646E-01 -0.22395E-01 -0.28485E-01 -0.32360E-01 -0.32596E-01
 -0.29391E-01 -0.23905E-01 -0.17337E-01 -0.10486E-01 -0.38308E-02  0.22934E-02
  0.75769E-02  0.11628E-01  0.13936E-01  0.14105E-01 -0.75129E-02 -0.69588E-02
 -0.49629E-02 -0.20282E-02  0.10622E-02  0.37383E-02  0.58919E-02  0.77446E-02
  0.95646E-02  0.11516E-01  0.13685E-01  0.16174E-01  0.19191E-01  0.23095E-01
  0.28218E-01  0.34307E-01  0.40003E-01  0.43076E-01  0.41730E-01  0.36031E-01
  0.28111E-01  0.20710E-01  0.15234E-01  0.10982E-01  0.61380E-02 -0.44941E-03
 -0.81942E-02 -0.15178E-01 -0.19498E-01 -0.20375E-01 -0.18273E-01 -0.14225E-01
 -0.91584E-02 -0.36862E-02  0.17616E-02  0.68031E-02  0.11051E-01  0.14054E-01
  0.15307E-01  0.14491E-01 -0.84267E-02 -0.74231E-02 -0.51816E-02 -0.20819E-02
  0.12809E-02  0.44514E-02  0.73029E-02  0.99484E-02  0.12545E-01  0.15208E-01
  0.18049E-01  0.21211E-01  0.24855E-01  0.29168E-01  0.34324E-01  0.40227E-01
  0.46115E-01  0.50518E-01  0.51929E-01  0.49801E-01  0.44936E-01  0.38811E-01
  0.32425E-01  0.25745E-01  0.18229E-01  0.98264E-02  0.14762E-02 -0.53174E-02
 -0.93958E-02 -0.10524E-01 -0.92597E-02 -0.64062E-02 -0.26193E-02  0.16275E-02
  0.59186E-02  0.98468E-02  0.13021E-01  0.15036E-01  0.15485E-01  0.14145E-01
 -0.84012E-02 -0.71030E-02 -0.48053E-02 -0.17658E-02  0.16087E-02  0.49817E-02
  0.82131E-02  0.11318E-01  0.14358E-01  0.17407E-01  0.20587E-01  0.24060E-01
  0.27953E-01  0.32328E-01  0.37193E-01  0.42440E-01  0.47640E-01  0.51921E-01
  0.54221E-01  0.53847E-01  0.50836E-01  0.45779E-01  0.39306E-01  0.31788E-01
  0.23507E-01  0.15042E-01  0.73614E-02  0.14792E-02 -0.20307E-02 -0.32287E-02
 -0.25935E-02 -0.67042E-03  0.21004E-02  0.53343E-02  0.86267E-02  0.11572E-01
  0.13812E-01  0.15020E-01  0.14915E-01  0.13369E-01 -0.77780E-02 -0.63004E-02
 -0.40345E-02 -0.11479E-02  0.20933E-02  0.54408E-02  0.87467E-02  0.11966E-01
  0.15114E-01  0.18247E-01  0.21475E-01  0.24940E-01  0.28740E-01  0.32877E-01
  0.37260E-01  0.41716E-01  0.45928E-01  0.49359E-01  0.51336E-01  0.51301E-01
  0.49048E-01  0.44748E-01  0.38808E-01  0.31738E-01  0.24145E-01  0.16765E-01
  0.10382E-01  0.56095E-02  0.26962E-02  0.15155E-02  0.17404E-02  0.30265E-02
  0.50620E-02  0.75180E-02  0.10024E-01  0.12210E-01  0.13759E-01  0.14408E-01
  0.13968E-01  0.12389E-01 -0.68453E-02 -0.52787E-02 -0.30860E-02 -0.38673E-03
  0.26353E-02  0.57872E-02  0.89246E-02  0.11983E-01  0.14971E-01  0.17944E-01
  0.20985E-01  0.24185E-01  0.27609E-01  0.31251E-01  0.35009E-01  0.38684E-01
  0.41977E-01  0.44492E-01  0.45793E-01  0.45511E-01  0.43463E-01  0.39714E-01
  0.34572E-01  0.28529E-01  0.22198E-01  0.16218E-01  0.11146E-01  0.73539E-02
  0.49681E-02  0.39040E-02  0.39610E-02  0.49010E-02  0.64674E-02  0.83730E-02
  0.10307E-01  0.11965E-01  0.13074E-01  0.13409E-01  0.12828E-01  0.11318E-01
 -0.57373E-02 -0.41587E-02 -0.20777E-02  0.40030E-03  0.31311E-02  0.59589E-02
  0.87575E-02  0.11469E-01  0.14108E-01  0.16729E-01  0.19387E-01  0.22129E-01
  0.24985E-01  0.27958E-01  0.30980E-01  0.33881E-01  0.36388E-01  0.38171E-01
  0.38908E-01  0.38356E-01  0.36406E-01  0.33128E-01  0.28785E-01  0.23805E-01
  0.18696E-01  0.13951E-01  0.99654E-02  0.69897E-02  0.51164E-02  0.43024E-02
  0.44093E-02  0.52406E-02  0.65642E-02  0.81316E-02  0.96979E-02  0.11030E-01
  0.11903E-01  0.12120E-01  0.11553E-01  0.10193E-01 -0.45288E-02 -0.30000E-02
 -0.10693E-02  0.11511E-02  0.35319E-02  0.59467E-02  0.82980E-02  0.10543E-01
  0.12698E-01  0.14810E-01  0.16924E-01  0.19066E-01  0.21251E-01  0.23481E-01
  0.25717E-01  0.27833E-01  0.29617E-01  0.30802E-01  0.31138E-01  0.30439E-01
  0.28634E-01  0.25793E-01  0.22146E-01  0.18055E-01  0.13941E-01  0.10195E-01
  0.71191E-02  0.48962E-02  0.35878E-02  0.31498E-02  0.34609E-02  0.43488E-02
  0.56105E-02  0.70367E-02  0.84322E-02  0.96164E-02  0.10409E-01  0.10639E-01
  0.10188E-01  0.90318E-02 -0.33224E-02 -0.18827E-02 -0.12181E-03  0.18268E-02
  0.38308E-02  0.57856E-02  0.76243E-02  0.93222E-02  0.10894E-01  0.12383E-01
  0.13833E-01  0.15279E-01  0.16740E-01  0.18212E-01  0.19663E-01  0.21008E-01
  0.22103E-01  0.22763E-01  0.22799E-01  0.22052E-01  0.20440E-01  0.18000E-01
  0.14924E-01  0.11531E-01  0.81993E-02  0.52745E-02  0.30071E-02  0.15237E-02
  0.83358E-03  0.85948E-03  0.14772E-02  0.25392E-02  0.38818E-02  0.53344E-02
  0.67331E-02  0.79246E-02  0.87575E-02  0.90858E-02  0.88003E-02  0.78664E-02
 -0.22412E-02 -0.90172E-03  0.70333E-03  0.24008E-02  0.40361E-02  0.55148E-02
  0.68011E-02  0.78960E-02  0.88230E-02  0.96243E-02  0.10353E-01  0.11056E-01
  0.11759E-01  0.12464E-01  0.13149E-01  0.13771E-01  0.14257E-01  0.14506E-01
  0.14379E-01  0.13712E-01  0.12361E-01  0.10291E-01  0.76449E-02  0.47401E-02
  0.19722E-02 -0.30738E-03 -0.18775E-02 -0.26689E-02 -0.27347E-02 -0.21964E-02
 -0.11942E-02  0.13714E-03  0.16662E-02  0.32591E-02  0.47796E-02  0.60914E-02
  0.70575E-02  0.75473E-02  0.74587E-02  0.67472E-02 -0.13858E-02 -0.12544E-03
  0.13732E-02  0.28685E-02  0.41614E-02  0.51602E-02  0.58667E-02  0.63236E-02
  0.65807E-02  0.66897E-02  0.67032E-02  0.66652E-02  0.66050E-02  0.65399E-02
  0.64853E-02  0.64588E-02  0.64721E-02  0.65010E-02  0.64357E-02  0.60547E-02
  0.50865E-02  0.33658E-02  0.98612E-03 -0.16841E-02 -0.41504E-02 -0.59989E-02
 -0.70213E-02 -0.72131E-02 -0.66952E-02 -0.56356E-02 -0.42012E-02 -0.25374E-02
 -0.76354E-03  0.10190E-02  0.27104E-02  0.41989E-02  0.53592E-02  0.60651E-02
  0.62080E-02  0.57225E-02 -0.78884E-03  0.43796E-03  0.18970E-02  0.32447E-02
  0.42191E-02  0.47354E-02  0.48486E-02  0.46614E-02  0.42636E-02  0.37190E-02
  0.30695E-02  0.23417E-02  0.15609E-02  0.76922E-03  0.35863E-04 -0.54324E-03
 -0.86156E-03 -0.86050E-03 -0.63633E-03 -0.51577E-03 -0.97178E-03 -0.23574E-02
 -0.46313E-02 -0.73130E-02 -0.97259E-02 -0.11337E-01 -0.11943E-01 -0.11624E-01
 -0.10584E-01 -0.90407E-02 -0.71875E-02 -0.51884E-02 -0.31654E-02 -0.11953E-02
  0.66269E-03  0.23317E-02  0.37058E-02  0.46605E-02  0.50654E-02  0.48107E-02
 -0.36442E-03  0.86220E-03  0.23159E-02  0.35332E-02  0.41899E-02  0.42244E-02
  0.37631E-02  0.29760E-02  0.19878E-02  0.86557E-03 -0.36492E-03 -0.16939E-02
 -0.30961E-02 -0.45068E-02 -0.58136E-02 -0.68528E-02 -0.74218E-02 -0.73660E-02
 -0.67607E-02 -0.60518E-02 -0.59461E-02 -0.70121E-02 -0.92607E-02 -0.12069E-01
 -0.14538E-01 -0.15990E-01 -0.16230E-01 -0.15444E-01 -0.13945E-01 -0.11999E-01
 -0.98095E-02 -0.75416E-02 -0.53152E-02 -0.31931E-02 -0.12060E-02  0.60382E-03
  0.21603E-02  0.33495E-02  0.40149E-02  0.39859E-02  0.93279E-04  0.12858E-02
  0.26720E-02  0.36919E-02  0.39924E-02  0.35609E-02  0.26007E-02  0.13313E-02
 -0.11584E-03 -0.16917E-02 -0.33877E-02 -0.51960E-02 -0.70800E-02 -0.89624E-02
 -0.10719E-01 -0.12154E-01 -0.12984E-01 -0.12954E-01 -0.12097E-01 -0.10938E-01
 -0.10370E-01 -0.11133E-01 -0.13281E-01 -0.16083E-01 -0.18474E-01 -0.19674E-01
 -0.19511E-01 -0.18278E-01 -0.16388E-01 -0.14151E-01 -0.11756E-01 -0.93362E-02
 -0.69937E-02 -0.47860E-02 -0.27369E-02 -0.86589E-03  0.78826E-03  0.21402E-02
  0.30212E-02  0.32041E-02  0.77900E-03  0.18194E-02  0.29690E-02  0.36437E-02
  0.35252E-02  0.26756E-02  0.13572E-02 -0.20470E-03 -0.19158E-02 -0.37699E-02
 -0.57737E-02 -0.79042E-02 -0.10103E-01 -0.12293E-01 -0.14370E-01 -0.16141E-01
 -0.17282E-01 -0.17462E-01 -0.16658E-01 -0.15399E-01 -0.14621E-01 -0.15106E-01
 -0.16921E-01 -0.19332E-01 -0.21276E-01 -0.21998E-01 -0.21373E-01 -0.19751E-01
 -0.17593E-01 -0.15214E-01 -0.12770E-01 -0.10343E-01 -0.80030E-02 -0.58091E-02
 -0.37951E-02 -0.19706E-02 -0.33422E-03  0.10735E-02  0.20964E-02  0.24762E-02
  0.16745E-02  0.24290E-02  0.31617E-02  0.33553E-02  0.27928E-02  0.16219E-02
  0.12720E-03 -0.15117E-02 -0.32756E-02 -0.52132E-02 -0.73402E-02 -0.96072E-02
 -0.11931E-01 -0.14239E-01 -0.16462E-01 -0.18438E-01 -0.19850E-01 -0.20357E-01
 -0.19907E-01 -0.18953E-01 -0.18288E-01 -0.18542E-01 -0.19743E-01 -0.21291E-01
 -0.22361E-01 -0.22396E-01 -0.21342E-01 -0.19517E-01 -0.17317E-01 -0.15007E-01
 -0.12693E-01 -0.10413E-01 -0.82113E-02 -0.61482E-02 -0.42745E-02 -0.25962E-02
 -0.10779E-02  0.28599E-03  0.13688E-02  0.19132E-02 -0.37846E-02 -0.40008E-02
 -0.42106E-02 -0.40484E-02 -0.33203E-02 -0.20912E-02 -0.52908E-03  0.12817E-02
  0.33806E-02  0.58275E-02  0.85773E-02  0.11442E-01  0.14156E-01  0.16460E-01
  0.18127E-01  0.19011E-01  0.19214E-01  0.19221E-01  0.19686E-01  0.20881E-01
  0.22373E-01  0.23415E-01  0.23723E-01  0.23753E-01  0.24143E-01  0.24968E-01
  0.25648E-01  0.25488E-01  0.24175E-01  0.21803E-01  0.18631E-01  0.14940E-01
  0.11054E-01  0.73171E-02  0.39940E-02  0.11674E-02 -0.12371E-02 -0.33042E-02
 -0.49689E-02 -0.60142E-02 -0.44102E-02 -0.45472E-02 -0.45556E-02 -0.40315E-02
 -0.28397E-02 -0.11539E-02  0.78918E-03  0.29181E-02  0.53303E-02  0.81306E-02
  0.11283E-01  0.14590E-01  0.17784E-01  0.20631E-01  0.22932E-01  0.24505E-01
  0.25262E-01  0.25374E-01  0.25272E-01  0.25364E-01  0.25756E-01  0.26328E-01
  0.27049E-01  0.28054E-01  0.29339E-01  0.30484E-01  0.30839E-01  0.29975E-01
  0.27900E-01  0.24884E-01  0.21206E-01  0.17107E-01  0.12874E-01  0.88361E-02
  0.52401E-02  0.21429E-02 -0.55686E-03 -0.29471E-02 -0.49230E-02 -0.62058E-02
 -0.46362E-02 -0.49788E-02 -0.50894E-02 -0.44737E-02 -0.30093E-02 -0.95587E-03
  0.13658E-02  0.38466E-02  0.65818E-02  0.96855E-02  0.13137E-01  0.16764E-01
  0.20330E-01  0.23636E-01  0.26525E-01  0.28796E-01  0.30186E-01  0.30536E-01
  0.29992E-01  0.29042E-01  0.28317E-01  0.28344E-01  0.29355E-01  0.31163E-01
  0.33128E-01  0.34385E-01  0.34286E-01  0.32707E-01  0.29955E-01  0.26427E-01
  0.22394E-01  0.18053E-01  0.13647E-01  0.94545E-02  0.56704E-02  0.23198E-02
 -0.68830E-03 -0.33811E-02 -0.55599E-02 -0.68676E-02 -0.45717E-02 -0.52769E-02
 -0.56805E-02 -0.51930E-02 -0.36705E-02 -0.14136E-02  0.11916E-02  0.39699E-02
  0.69604E-02  0.10248E-01  0.13828E-01  0.17576E-01  0.21302E-01  0.24831E-01
  0.28025E-01  0.30675E-01  0.32415E-01  0.32847E-01  0.31880E-01  0.30026E-01
  0.28302E-01  0.27742E-01  0.28812E-01  0.31092E-01  0.33483E-01  0.34821E-01
  0.34484E-01  0.32564E-01  0.29542E-01  0.25863E-01  0.21783E-01  0.17477E-01
  0.13153E-01  0.90276E-02  0.52295E-02  0.17631E-02 -0.14160E-02 -0.42430E-02
 -0.64241E-02 -0.75520E-02 -0.43339E-02 -0.53537E-02 -0.60426E-02 -0.57755E-02
 -0.43849E-02 -0.21561E-02  0.51565E-03  0.34032E-02  0.64657E-02  0.97290E-02
  0.13193E-01  0.16787E-01  0.20370E-01  0.23771E-01  0.26832E-01  0.29336E-01
  0.30896E-01  0.31022E-01  0.29515E-01  0.26887E-01  0.24351E-01  0.23233E-01
  0.24145E-01  0.26579E-01  0.29222E-01  0.30778E-01  0.30636E-01  0.28949E-01
  0.26217E-01  0.22867E-01  0.19147E-01  0.15239E-01  0.11328E-01  0.75673E-02
  0.40263E-02  0.71376E-03 -0.23472E-02 -0.50093E-02 -0.69373E-02 -0.77423E-02
 -0.39417E-02 -0.50968E-02 -0.59330E-02 -0.58811E-02 -0.47702E-02 -0.28222E-02
 -0.37506E-03  0.23345E-02  0.51943E-02  0.81605E-02  0.11220E-01  0.14346E-01
  0.17437E-01  0.20314E-01  0.22783E-01  0.24616E-01  0.25461E-01  0.24884E-01
  0.22711E-01  0.19457E-01  0.16361E-01  0.14795E-01  0.15422E-01  0.17758E-01
  0.20514E-01  0.22418E-01  0.22853E-01  0.21905E-01  0.19975E-01  0.17422E-01
  0.14489E-01  0.11373E-01  0.82371E-02  0.51756E-02  0.22222E-02 -0.59127E-03
 -0.31766E-02 -0.53424E-02 -0.67824E-02 -0.71951E-02 -0.33184E-02 -0.44467E-02
 -0.53051E-02 -0.54487E-02 -0.47252E-02 -0.32708E-02 -0.13264E-02  0.90084E-03
  0.32584E-02  0.56458E-02  0.80251E-02  0.10381E-01  0.12633E-01  0.14603E-01
  0.16070E-01  0.16813E-01  0.16562E-01  0.15025E-01  0.12147E-01  0.84493E-02
  0.50570E-02  0.31988E-02  0.34853E-02  0.55323E-02  0.82451E-02  0.10508E-01
  0.11720E-01  0.11839E-01  0.11101E-01  0.97595E-02  0.80213E-02  0.60689E-02
  0.40379E-02  0.19897E-02 -0.51069E-04 -0.20260E-02 -0.38105E-02 -0.52156E-02
 -0.60097E-02 -0.60080E-02 -0.23653E-02 -0.34207E-02 -0.42823E-02 -0.46453E-02
 -0.43850E-02 -0.35610E-02 -0.23208E-02 -0.82592E-03  0.76803E-03  0.23350E-02
  0.38056E-02  0.51383E-02  0.62428E-02  0.69486E-02  0.70575E-02  0.63948E-02
  0.48015E-02  0.21611E-02 -0.14330E-02 -0.54618E-02 -0.89897E-02 -0.11037E-01
 -0.11103E-01 -0.94452E-02 -0.68743E-02 -0.42691E-02 -0.21825E-02 -0.78020E-03
 -0.12465E-04  0.22620E-03  0.51730E-04 -0.41182E-03 -0.10616E-02 -0.18380E-02
 -0.26963E-02 -0.35596E-02 -0.43071E-02 -0.47901E-02 -0.48599E-02 -0.44299E-02
 -0.10289E-02 -0.20737E-02 -0.30209E-02 -0.36751E-02 -0.39354E-02 -0.38128E-02
 -0.33933E-02 -0.27974E-02 -0.21567E-02 -0.15945E-02 -0.12134E-02 -0.11104E-02
 -0.14083E-02 -0.22575E-02 -0.37949E-02 -0.61094E-02 -0.92363E-02 -0.13129E-01
 -0.17557E-01 -0.22008E-01 -0.25728E-01 -0.27980E-01 -0.28375E-01 -0.27044E-01
 -0.24523E-01 -0.21458E-01 -0.18344E-01 -0.15459E-01 -0.12928E-01 -0.10812E-01
 -0.91229E-02 -0.78281E-02 -0.68640E-02 -0.61577E-02 -0.56307E-02 -0.51966E-02
 -0.47640E-02 -0.42407E-02 -0.35458E-02 -0.26514E-02  0.67742E-03 -0.46144E-03
 -0.16165E-02 -0.26568E-02 -0.34945E-02 -0.41169E-02 -0.45790E-02 -0.49713E-02
 -0.53970E-02 -0.59715E-02 -0.68296E-02 -0.81227E-02 -0.10000E-01 -0.12583E-01
 -0.15940E-01 -0.20077E-01 -0.24920E-01 -0.30288E-01 -0.35831E-01 -0.41014E-01
 -0.45192E-01 -0.47777E-01 -0.48442E-01 -0.47216E-01 -0.44443E-01 -0.40615E-01
 -0.36215E-01 -0.31633E-01 -0.27154E-01 -0.22983E-01 -0.19246E-01 -0.15997E-01
 -0.13219E-01 -0.10848E-01 -0.87881E-02 -0.69475E-02 -0.52591E-02 -0.36780E-02
 -0.21731E-02 -0.74664E-03  0.26743E-02  0.13505E-02 -0.12012E-03 -0.16366E-02
 -0.31150E-02 -0.45274E-02 -0.59060E-02 -0.73193E-02 -0.88591E-02 -0.10652E-01
 -0.12861E-01 -0.15663E-01 -0.19203E-01 -0.23575E-01 -0.28812E-01 -0.34875E-01
 -0.41611E-01 -0.48713E-01 -0.55708E-01 -0.61997E-01 -0.66951E-01 -0.70030E-01
 -0.70910E-01 -0.69548E-01 -0.66182E-01 -0.61249E-01 -0.55276E-01 -0.48787E-01
 -0.42226E-01 -0.35917E-01 -0.30054E-01 -0.24738E-01 -0.20001E-01 -0.15823E-01
 -0.12127E-01 -0.88222E-02 -0.58404E-02 -0.31591E-02 -0.78517E-03  0.12537E-02
  0.48267E-02  0.32592E-02  0.14033E-02 -0.65382E-03 -0.28275E-02 -0.50705E-02
 -0.73845E-02 -0.98178E-02 -0.12472E-01 -0.15507E-01 -0.19111E-01 -0.23451E-01
 -0.28651E-01 -0.34798E-01 -0.41935E-01 -0.50002E-01 -0.58756E-01 -0.67749E-01
 -0.76375E-01 -0.83963E-01 -0.89868E-01 -0.93551E-01 -0.94658E-01 -0.93088E-01
 -0.89009E-01 -0.82827E-01 -0.75129E-01 -0.66583E-01 -0.57814E-01 -0.49281E-01
 -0.41242E-01 -0.33816E-01 -0.27062E-01 -0.21007E-01 -0.15623E-01 -0.10823E-01
 -0.65272E-02 -0.27153E-02  0.57382E-03  0.32823E-02  0.69772E-02  0.51358E-02
  0.28632E-02  0.23680E-03 -0.26553E-02 -0.57417E-02 -0.89872E-02 -0.12421E-01
 -0.16161E-01 -0.20399E-01 -0.25342E-01 -0.31152E-01 -0.37953E-01 -0.45856E-01
 -0.54908E-01 -0.64988E-01 -0.75714E-01 -0.86483E-01 -0.96594E-01 -0.10536E+00
 -0.11217E+00 -0.11649E+00 -0.11794E+00 -0.11634E+00 -0.11176E+00 -0.10453E+00
 -0.95247E-01 -0.84676E-01 -0.73630E-01 -0.62770E-01 -0.52487E-01 -0.42947E-01
 -0.34210E-01 -0.26310E-01 -0.19242E-01 -0.12938E-01 -0.73206E-02 -0.23738E-02
  0.18388E-02  0.52308E-02  0.89942E-02  0.68733E-02  0.41795E-02  0.98359E-03
 -0.26160E-02 -0.65182E-02 -0.10656E-01 -0.15046E-01 -0.19811E-01 -0.25153E-01
 -0.31290E-01 -0.38417E-01 -0.46710E-01 -0.56302E-01 -0.67181E-01 -0.79069E-01
 -0.91410E-01 -0.10350E+00 -0.11466E+00 -0.12429E+00 -0.13185E+00 -0.13683E+00
 -0.13880E+00 -0.13748E+00 -0.13281E+00 -0.12501E+00 -0.11458E+00 -0.10232E+00
 -0.89157E-01 -0.75991E-01 -0.63449E-01 -0.51835E-01 -0.41223E-01 -0.31594E-01
 -0.22914E-01 -0.15139E-01 -0.82245E-02 -0.21745E-02  0.29343E-02  0.69937E-02
  0.10769E-01  0.83869E-02  0.52885E-02  0.15365E-02 -0.27418E-02 -0.73988E-02
 -0.12341E-01 -0.17585E-01 -0.23254E-01 -0.29536E-01 -0.36658E-01 -0.44884E-01
 -0.54469E-01 -0.65523E-01 -0.77870E-01 -0.91017E-01 -0.10430E+00 -0.11708E+00
 -0.12882E+00 -0.13905E+00 -0.14730E+00 -0.15304E+00 -0.15573E+00 -0.15497E+00
 -0.15055E+00 -0.14261E+00 -0.13160E+00 -0.11823E+00 -0.10346E+00 -0.88309E-01
 -0.73689E-01 -0.60146E-01 -0.47827E-01 -0.36648E-01 -0.26508E-01 -0.17378E-01
 -0.92652E-02 -0.21907E-02  0.37672E-02  0.84716E-02  0.12127E-01  0.95283E-02
  0.60741E-02  0.18007E-02 -0.31121E-02 -0.84305E-02 -0.14021E-01 -0.19919E-01
 -0.26268E-01 -0.33245E-01 -0.41090E-01 -0.50133E-01 -0.60669E-01 -0.72704E-01
 -0.85834E-01 -0.99417E-01 -0.11287E+00 -0.12578E+00 -0.13783E+00 -0.14862E+00
 -0.15762E+00 -0.16424E+00 -0.16782E+00 -0.16777E+00 -0.16377E+00 -0.15593E+00