       #
       # Generated by the Wannier90 code http://www.wannier.org
       # On  1Apr2018 at 06:43:27 
       #
CRYSTAL
PRIMVEC
   3.0715001   0.0000000   0.0000000
   0.0300198   3.0713534   0.0000000
   0.0300198   0.0297278   3.0712095
CONVVEC
   3.0715001   0.0000000   0.0000000
   0.0300198   3.0713534   0.0000000
   0.0300198   0.0297278   3.0712095
PRIMCOORD
     1  1
Sn      0.0000000   0.0000000   0.0000000


BEGIN_BLOCK_DATAGRID_3D
3D_field
BEGIN_DATAGRID_3D_UNKNOWN
    40    40    40
   -3.288117   -3.256135   -3.224770
   5.9894252   0.0000000   0.0000000
   0.0585386   5.9891391   0.0000000
   0.0585386   0.0579692   5.9888585
 -0.35700E-02 -0.47256E-02 -0.51892E-02 -0.51041E-02 -0.47375E-02 -0.42442E-02
 -0.35814E-02 -0.25989E-02 -0.11808E-02  0.67738E-03  0.28665E-02  0.51978E-02
  0.74590E-02  0.94726E-02  0.11093E-01  0.12129E-01  0.12313E-01  0.11461E-01
  0.97029E-02  0.74869E-02  0.52284E-02  0.29660E-02  0.45028E-03 -0.23910E-02
 -0.51559E-02 -0.72048E-02 -0.81631E-02 -0.81414E-02 -0.75125E-02 -0.65810E-02
 -0.54832E-02 -0.42929E-02 -0.31136E-02 -0.20691E-02 -0.12595E-02 -0.71727E-03
 -0.35233E-03  0.54029E-04  0.71670E-03  0.16306E-02 -0.42352E-02 -0.49592E-02
 -0.52659E-02 -0.52690E-02 -0.50849E-02 -0.47258E-02 -0.41086E-02 -0.31355E-02
 -0.17602E-02 -0.73479E-05  0.20267E-02  0.41815E-02  0.62689E-02  0.81265E-02
  0.96157E-02  0.10544E-01  0.10641E-01  0.97328E-02  0.79995E-02  0.59805E-02
  0.41928E-02  0.27115E-02  0.11984E-02 -0.62078E-03 -0.25638E-02 -0.41164E-02
 -0.48899E-02 -0.48913E-02 -0.43884E-02 -0.36306E-02 -0.27396E-02 -0.17822E-02
 -0.84495E-03 -0.25962E-04  0.60543E-03  0.10371E-02  0.13339E-02  0.16281E-02
  0.20380E-02  0.25533E-02 -0.48028E-02 -0.49894E-02 -0.50961E-02 -0.51982E-02
 -0.52329E-02 -0.50465E-02 -0.45118E-02 -0.35945E-02 -0.23314E-02 -0.78480E-03
  0.96449E-03  0.27966E-02  0.45611E-02  0.61176E-02  0.73369E-02  0.80392E-02
  0.79870E-02  0.70626E-02  0.55176E-02  0.39676E-02  0.29892E-02  0.26517E-02
  0.24898E-02  0.19807E-02  0.10332E-02  0.64837E-05 -0.67580E-03 -0.85476E-03
 -0.63283E-03 -0.17768E-03  0.40025E-03  0.10328E-02  0.16511E-02  0.21894E-02
  0.26116E-02  0.29185E-02  0.31330E-02  0.32787E-02  0.33640E-02  0.33822E-02
 -0.48679E-02 -0.44502E-02 -0.42884E-02 -0.44362E-02 -0.46825E-02 -0.47297E-02
 -0.44011E-02 -0.36986E-02 -0.27166E-02 -0.15458E-02 -0.25518E-03  0.10749E-02
  0.23405E-02  0.34346E-02  0.42441E-02  0.46107E-02  0.43520E-02  0.34391E-02
  0.22157E-02  0.13593E-02  0.14577E-02  0.25191E-02  0.39136E-02  0.48576E-02
  0.49906E-02  0.45269E-02  0.39379E-02  0.35595E-02  0.34604E-02  0.35550E-02
  0.37445E-02  0.39654E-02  0.41754E-02  0.43436E-02  0.44584E-02  0.45212E-02
  0.45144E-02  0.43766E-02  0.40414E-02  0.35303E-02 -0.42421E-02 -0.32357E-02
 -0.27538E-02 -0.28556E-02 -0.32561E-02 -0.35751E-02 -0.35923E-02 -0.33037E-02
 -0.28133E-02 -0.22179E-02 -0.15774E-02 -0.93908E-03 -0.35373E-03  0.12224E-03
  0.40985E-03  0.38407E-03 -0.75291E-04 -0.90671E-03 -0.16890E-02 -0.17224E-02
 -0.46064E-03  0.20081E-02  0.49033E-02  0.72409E-02  0.84585E-02  0.86522E-02
  0.83106E-02  0.78845E-02  0.75625E-02  0.73244E-02  0.70967E-02  0.68424E-02
  0.65595E-02  0.62522E-02  0.59231E-02  0.55690E-02  0.51514E-02  0.45768E-02
  0.37646E-02  0.27850E-02 -0.30141E-02 -0.15149E-02 -0.70164E-03 -0.66004E-03
 -0.11158E-02 -0.16873E-02 -0.21362E-02 -0.24251E-02 -0.26213E-02 -0.27953E-02
 -0.29872E-02 -0.32113E-02 -0.34636E-02 -0.37361E-02 -0.40501E-02 -0.44739E-02
 -0.50586E-02 -0.56762E-02 -0.58853E-02 -0.50391E-02 -0.26920E-02  0.97043E-03
  0.50931E-02  0.86160E-02  0.10878E-01  0.11873E-01  0.12031E-01  0.11805E-01
  0.11426E-01  0.10929E-01  0.10292E-01  0.95332E-02  0.86992E-02  0.78258E-02
  0.69265E-02  0.60015E-02  0.50232E-02  0.39234E-02  0.26603E-02  0.13526E-02
 -0.13784E-02  0.50241E-03  0.16367E-02  0.19017E-02  0.14947E-02  0.72675E-03
 -0.18442E-03 -0.11633E-02 -0.22083E-02 -0.33252E-02 -0.45071E-02 -0.57283E-02
 -0.69362E-02 -0.80613E-02 -0.90502E-02 -0.98824E-02 -0.10520E-01 -0.10791E-01
 -0.10300E-01 -0.85406E-02 -0.52230E-02 -0.61425E-03  0.44485E-02  0.89560E-02
  0.12236E-01  0.14179E-01  0.15067E-01  0.15253E-01  0.14953E-01  0.14261E-01
  0.13239E-01  0.11974E-01  0.10561E-01  0.90622E-02  0.75061E-02  0.59151E-02
  0.43051E-02  0.26742E-02  0.10465E-02 -0.42866E-03  0.55590E-03  0.27672E-02
  0.42234E-02  0.47570E-02  0.44551E-02  0.35182E-02  0.21167E-02  0.35956E-03
 -0.16658E-02 -0.38708E-02 -0.61745E-02 -0.85020E-02 -0.10762E-01 -0.12837E-01
 -0.14592E-01 -0.15893E-01 -0.16587E-01 -0.16459E-01 -0.15199E-01 -0.12489E-01
 -0.82291E-02 -0.27614E-02  0.31423E-02  0.85825E-02  0.12911E-01  0.15900E-01
  0.17641E-01  0.18339E-01  0.18184E-01  0.17334E-01  0.15948E-01  0.14184E-01
  0.12177E-01  0.10015E-01  0.77551E-02  0.54606E-02  0.32092E-02  0.10809E-02
 -0.82954E-03 -0.23630E-02  0.28088E-02  0.53842E-02  0.71842E-02  0.79851E-02
  0.77607E-02  0.66034E-02  0.46402E-02  0.20175E-02 -0.10887E-02 -0.44928E-02
 -0.80355E-02 -0.11586E-01 -0.15011E-01 -0.18140E-01 -0.20761E-01 -0.22621E-01
 -0.23447E-01 -0.22968E-01 -0.20948E-01 -0.17250E-01 -0.11962E-01 -0.55090E-02
  0.13769E-02  0.78747E-02  0.13336E-01  0.17412E-01  0.20018E-01  0.21235E-01
  0.21240E-01  0.20259E-01  0.18529E-01  0.16262E-01  0.13631E-01  0.10769E-01
  0.77810E-02  0.47793E-02  0.18998E-02 -0.70297E-03 -0.28707E-02 -0.44398E-02
  0.54340E-02  0.84611E-02  0.10637E-01  0.11667E-01  0.11426E-01  0.99274E-02
  0.72873E-02  0.37055E-02 -0.56182E-03 -0.52579E-02 -0.10164E-01 -0.15087E-01
 -0.19821E-01 -0.24120E-01 -0.27689E-01 -0.30181E-01 -0.31223E-01 -0.30487E-01
 -0.27766E-01 -0.23046E-01 -0.16569E-01 -0.88662E-02 -0.70130E-03  0.70940E-02
  0.13815E-01  0.18998E-01  0.22433E-01  0.24139E-01  0.24305E-01  0.23210E-01
  0.21139E-01  0.18343E-01  0.15040E-01  0.11432E-01  0.76924E-02  0.39819E-02
  0.47882E-03 -0.26079E-02 -0.50647E-02 -0.67136E-02  0.83969E-02  0.11974E-01
  0.14563E-01  0.15787E-01  0.15430E-01  0.13462E-01  0.10021E-01  0.53756E-02
 -0.14935E-03 -0.62534E-02 -0.12675E-01 -0.19144E-01 -0.25346E-01 -0.30932E-01
 -0.35526E-01 -0.38712E-01 -0.40043E-01 -0.39124E-01 -0.35734E-01 -0.29921E-01
 -0.22047E-01 -0.12775E-01 -0.29837E-02  0.63945E-02  0.14544E-01  0.20891E-01
  0.25148E-01  0.27317E-01  0.27621E-01  0.26387E-01  0.23939E-01  0.20561E-01
  0.16530E-01  0.12124E-01  0.75926E-02  0.31474E-02 -0.10012E-02 -0.46053E-02
 -0.74025E-02 -0.91877E-02  0.11528E-01  0.15741E-01  0.18796E-01  0.20214E-01
  0.19697E-01  0.17183E-01  0.12842E-01  0.70159E-02  0.90040E-04 -0.75885E-02
 -0.15699E-01 -0.23879E-01 -0.31699E-01 -0.38709E-01 -0.44450E-01 -0.48430E-01
 -0.50110E-01 -0.49010E-01 -0.44867E-01 -0.37774E-01 -0.28218E-01 -0.17034E-01
 -0.52749E-02  0.59654E-02  0.15732E-01  0.23344E-01  0.28459E-01  0.31076E-01
  0.31458E-01  0.29992E-01  0.27068E-01  0.23031E-01  0.18215E-01  0.12958E-01
  0.75766E-02  0.23375E-02 -0.25045E-02 -0.66625E-02 -0.98345E-02 -0.11785E-01
  0.14576E-01  0.19508E-01  0.23102E-01  0.24758E-01  0.24088E-01  0.21000E-01
  0.15695E-01  0.85668E-02  0.66025E-04 -0.93799E-02 -0.19348E-01 -0.29373E-01
 -0.38950E-01 -0.47554E-01 -0.54624E-01 -0.59521E-01 -0.61552E-01 -0.60125E-01
 -0.54960E-01 -0.46238E-01 -0.34617E-01 -0.21151E-01 -0.71137E-02  0.62089E-02
  0.17721E-01  0.26657E-01  0.32639E-01  0.35665E-01  0.36027E-01  0.34190E-01
  0.30648E-01  0.25849E-01  0.20187E-01  0.14029E-01  0.77303E-02  0.16242E-02
 -0.39664E-02 -0.87081E-02 -0.12269E-01 -0.14388E-01  0.17280E-01  0.23040E-01
  0.27280E-01  0.29234E-01  0.28420E-01  0.24731E-01  0.18402E-01  0.98676E-02
 -0.35723E-03 -0.11728E-01 -0.23683E-01 -0.35666E-01 -0.47138E-01 -0.57514E-01
 -0.66066E-01 -0.71903E-01 -0.74117E-01 -0.72032E-01 -0.65425E-01 -0.54629E-01
 -0.40521E-01 -0.24404E-01 -0.78136E-02  0.77380E-02  0.21008E-01  0.31181E-01
  0.37902E-01  0.41204E-01  0.41415E-01  0.39063E-01  0.34762E-01  0.29088E-01
  0.22506E-01  0.15397E-01  0.81304E-02  0.11055E-02 -0.52742E-02 -0.10627E-01
 -0.14599E-01 -0.16903E-01  0.19413E-01  0.26150E-01  0.31171E-01  0.33482E-01
  0.32493E-01  0.28131E-01  0.20702E-01  0.10692E-01 -0.13278E-02 -0.14693E-01
 -0.28706E-01 -0.42741E-01 -0.56230E-01 -0.68480E-01 -0.78494E-01 -0.85066E-01
 -0.87098E-01 -0.83934E-01 -0.75501E-01 -0.62317E-01 -0.45444E-01 -0.26405E-01
 -0.70125E-02  0.10925E-01  0.25948E-01  0.37188E-01  0.44382E-01  0.47704E-01
  0.47575E-01  0.44579E-01  0.39413E-01  0.32767E-01  0.25189E-01  0.17086E-01
  0.88391E-02  0.89637E-03 -0.62777E-02 -0.12269E-01 -0.16706E-01 -0.19247E-01
  0.20839E-01  0.28679E-01  0.34579E-01  0.37252E-01  0.36011E-01  0.30875E-01
  0.22287E-01  0.10803E-01 -0.29640E-02 -0.18276E-01 -0.34343E-01 -0.50476E-01
 -0.66024E-01 -0.80076E-01 -0.91293E-01 -0.98185E-01 -0.99610E-01 -0.95083E-01
 -0.84751E-01 -0.69267E-01 -0.49751E-01 -0.27809E-01 -0.54620E-02  0.15130E-01
  0.32133E-01  0.44473E-01  0.51961E-01  0.55026E-01  0.54325E-01  0.50557E-01
  0.44464E-01  0.36795E-01  0.28179E-01  0.19076E-01  0.98986E-02  0.11176E-02
 -0.67909E-02 -0.13421E-01 -0.18386E-01 -0.21250E-01  0.21686E-01  0.30558E-01
  0.37211E-01  0.40086E-01  0.38452E-01  0.32476E-01  0.22773E-01  0.99679E-02
 -0.53365E-02 -0.22406E-01 -0.40413E-01 -0.58582E-01 -0.76076E-01 -0.91657E-01
 -0.10364E+00 -0.11040E+00 -0.11093E+00 -0.10505E+00 -0.93169E-01 -0.75995E-01
 -0.54551E-01 -0.30283E-01 -0.51727E-02  0.18361E-01  0.37934E-01  0.51926E-01
  0.59965E-01  0.62732E-01  0.61304E-01  0.56659E-01  0.49621E-01  0.40951E-01
  0.31327E-01  0.21292E-01  0.11322E-01  0.18892E-02 -0.65838E-02 -0.13768E-01
 -0.19288E-01 -0.22586E-01  0.22457E-01  0.31923E-01  0.38799E-01  0.41429E-01
  0.39163E-01  0.32359E-01  0.21768E-01  0.80074E-02 -0.84317E-02 -0.26912E-01
 -0.46605E-01 -0.66597E-01 -0.85750E-01 -0.10245E+00 -0.11474E+00 -0.12102E+00
 -0.12057E+00 -0.11358E+00 -0.10072E+00 -0.82798E-01 -0.60681E-01 -0.35365E-01
 -0.83200E-02  0.18131E-01  0.41002E-01  0.57685E-01  0.67116E-01  0.69996E-01
  0.67927E-01  0.62405E-01  0.54471E-01  0.44899E-01  0.34390E-01  0.23587E-01
  0.13059E-01  0.32777E-02 -0.54607E-02 -0.12995E-01 -0.19031E-01 -0.22903E-01
  0.23784E-01  0.33084E-01  0.39323E-01  0.41031E-01  0.37829E-01  0.30283E-01
  0.19182E-01  0.49903E-02 -0.12046E-01 -0.31473E-01 -0.52476E-01 -0.73939E-01
 -0.94356E-01 -0.11174E+00 -0.12399E+00 -0.12962E+00 -0.12823E+00 -0.12034E+00
 -0.10695E+00 -0.89159E-01 -0.67760E-01 -0.43078E-01 -0.15522E-01  0.13239E-01
  0.39783E-01  0.60171E-01  0.72077E-01  0.75821E-01  0.73482E-01  0.67248E-01
  0.58555E-01  0.48252E-01  0.37058E-01  0.25723E-01  0.14936E-01  0.51625E-02
 -0.34793E-02 -0.11091E-01 -0.17551E-01 -0.22142E-01  0.25824E-01  0.34255E-01
  0.39109E-01  0.39350E-01  0.35008E-01  0.26856E-01  0.15617E-01  0.14710E-02
 -0.15673E-01 -0.35595E-01 -0.57489E-01 -0.80010E-01 -0.10129E+00 -0.11903E+00
 -0.13107E+00 -0.13605E+00 -0.13382E+00 -0.12513E+00 -0.11139E+00 -0.94163E-01
 -0.74371E-01 -0.51624E-01 -0.24941E-01  0.51062E-02  0.34954E-01  0.59307E-01
  0.74287E-01  0.79505E-01  0.77339E-01  0.70680E-01  0.61447E-01  0.50634E-01
  0.38994E-01  0.27377E-01  0.16595E-01  0.71069E-02 -0.11676E-02 -0.86328E-02
 -0.15402E-01 -0.20756E-01  0.27924E-01  0.35315E-01  0.38706E-01  0.37514E-01
  0.32159E-01  0.23573E-01  0.12377E-01 -0.15325E-02 -0.18559E-01 -0.38682E-01
 -0.61099E-01 -0.84277E-01 -0.10607E+00 -0.12399E+00 -0.13585E+00 -0.14039E+00
 -0.13755E+00 -0.12824E+00 -0.11419E+00 -0.97436E-01 -0.79150E-01 -0.58423E-01
 -0.33090E-01 -0.26592E-02  0.29382E-01  0.56750E-01  0.74290E-01  0.80919E-01
  0.79130E-01  0.72322E-01  0.62812E-01  0.51737E-01  0.39889E-01  0.28194E-01
  0.17553E-01  0.84142E-02  0.54124E-03 -0.67112E-02 -0.13651E-01 -0.19584E-01
  0.29061E-01  0.35935E-01  0.38624E-01  0.36748E-01  0.30899E-01  0.22080E-01
  0.10865E-01 -0.29753E-02 -0.19982E-01 -0.40215E-01 -0.62875E-01 -0.86347E-01
 -0.10839E+00 -0.12644E+00 -0.13831E+00 -0.14279E+00 -0.13982E+00 -0.13030E+00
 -0.11606E+00 -0.99354E-01 -0.81518E-01 -0.61526E-01 -0.36790E-01 -0.63840E-02
  0.26305E-01  0.54685E-01  0.73145E-01  0.80332E-01  0.78756E-01  0.71980E-01
  0.62459E-01  0.51379E-01  0.39545E-01  0.27908E-01  0.17392E-01  0.84386E-02
  0.75533E-03 -0.63758E-02 -0.13315E-01 -0.19375E-01  0.28767E-01  0.35976E-01
  0.39114E-01  0.37625E-01  0.31973E-01  0.23130E-01  0.11718E-01 -0.23868E-02
 -0.19616E-01 -0.39960E-01 -0.62613E-01 -0.86031E-01 -0.10807E+00 -0.12624E+00
 -0.13838E+00 -0.14326E+00 -0.14072E+00 -0.13156E+00 -0.11739E+00 -0.10026E+00
 -0.81489E-01 -0.60386E-01 -0.34931E-01 -0.46544E-02  0.27061E-01  0.54086E-01
  0.71398E-01  0.77969E-01  0.76276E-01  0.69662E-01  0.60388E-01  0.49558E-01
  0.37944E-01  0.26462E-01  0.15993E-01  0.69732E-02 -0.81870E-03 -0.79685E-02
 -0.14712E-01 -0.20334E-01  0.27553E-01  0.35655E-01  0.40024E-01  0.39678E-01
  0.34742E-01  0.26068E-01  0.14388E-01 -0.15770E-03 -0.17706E-01 -0.38054E-01
 -0.60395E-01 -0.83374E-01 -0.10511E+00 -0.12334E+00 -0.13591E+00 -0.14150E+00
 -0.13983E+00 -0.13147E+00 -0.11761E+00 -0.99811E-01 -0.79246E-01 -0.55875E-01
 -0.28979E-01  0.83140E-03  0.30159E-01  0.53972E-01  0.68613E-01  0.73789E-01
  0.71844E-01  0.65573E-01  0.56800E-01  0.46460E-01  0.35270E-01  0.24063E-01
  0.13628E-01  0.44059E-02 -0.36583E-02 -0.10874E-01 -0.17237E-01 -0.21996E-01
  0.26378E-01  0.35254E-01  0.40817E-01  0.41684E-01  0.37617E-01  0.29295E-01
  0.17528E-01  0.27288E-02 -0.14902E-01 -0.34931E-01 -0.56551E-01 -0.78649E-01
 -0.99716E-01 -0.11776E+00 -0.13072E+00 -0.13712E+00 -0.13647E+00 -0.12908E+00
 -0.11571E+00 -0.97409E-01 -0.75226E-01 -0.49875E-01 -0.22075E-01  0.64462E-02
  0.32450E-01  0.52299E-01  0.63916E-01  0.67724E-01  0.65757E-01  0.60094E-01
  0.52056E-01  0.42419E-01  0.31857E-01  0.21103E-01  0.10833E-01  0.15042E-02
 -0.67403E-02 -0.13905E-01 -0.19747E-01 -0.23516E-01  0.25747E-01  0.34736E-01
  0.40810E-01  0.42419E-01  0.39085E-01  0.31299E-01  0.19840E-01  0.52844E-02
 -0.11914E-01 -0.31131E-01 -0.51559E-01 -0.72307E-01 -0.92244E-01 -0.10973E+00
 -0.12282E+00 -0.12992E+00 -0.13028E+00 -0.12390E+00 -0.11124E+00 -0.93043E-01
 -0.70354E-01 -0.44512E-01 -0.17274E-01  0.89699E-02  0.31401E-01  0.47688E-01
  0.56991E-01  0.60093E-01  0.58547E-01  0.53740E-01  0.46608E-01  0.37844E-01
  0.28101E-01  0.18013E-01  0.81555E-02 -0.99776E-03 -0.91291E-02 -0.16006E-01
 -0.21240E-01 -0.24150E-01  0.25383E-01  0.33750E-01  0.39545E-01  0.41317E-01
  0.38505E-01  0.31413E-01  0.20694E-01  0.69513E-02 -0.92306E-02 -0.27123E-01
 -0.45927E-01 -0.64913E-01 -0.83258E-01 -0.99691E-01 -0.11250E+00 -0.12006E+00
 -0.12136E+00 -0.11612E+00 -0.10457E+00 -0.87371E-01 -0.65651E-01 -0.41100E-01
 -0.15914E-01  0.74398E-02  0.26709E-01  0.40492E-01  0.48588E-01  0.51726E-01
  0.50931E-01  0.47089E-01  0.40933E-01  0.33150E-01  0.24374E-01  0.15145E-01
  0.59587E-02 -0.26935E-02 -0.10379E-01 -0.16732E-01 -0.21324E-01 -0.23605E-01
  0.24647E-01  0.31966E-01  0.37010E-01  0.38579E-01  0.36137E-01  0.29826E-01
  0.20140E-01  0.76383E-02 -0.70659E-02 -0.23236E-01 -0.40112E-01 -0.57058E-01
 -0.73454E-01 -0.88360E-01 -0.10039E+00 -0.10804E+00 -0.11015E+00 -0.10620E+00
 -0.96255E-01 -0.80924E-01 -0.61388E-01 -0.39398E-01 -0.17101E-01  0.33235E-02
  0.20141E-01  0.32431E-01  0.40116E-01  0.43645E-01  0.43625E-01  0.40679E-01
  0.35477E-01  0.28710E-01  0.20968E-01  0.12714E-01  0.43863E-02 -0.35207E-02
 -0.10526E-01 -0.16217E-01 -0.20195E-01 -0.22052E-01  0.23116E-01  0.29326E-01
  0.33524E-01  0.34782E-01  0.32624E-01  0.27087E-01  0.18544E-01  0.75019E-02
 -0.54572E-02 -0.19672E-01 -0.34467E-01 -0.49265E-01 -0.63534E-01 -0.76574E-01
 -0.87348E-01 -0.94611E-01 -0.97251E-01 -0.94590E-01 -0.86532E-01 -0.73586E-01
 -0.56852E-01 -0.37920E-01 -0.18660E-01 -0.87206E-03  0.14054E-01  0.25345E-01
  0.32805E-01  0.36612E-01  0.37141E-01  0.34919E-01  0.30588E-01  0.24796E-01
  0.18069E-01  0.10812E-01  0.34325E-02 -0.36039E-02 -0.98300E-02 -0.14841E-01
 -0.18283E-01 -0.19862E-01  0.20750E-01  0.25992E-01  0.29453E-01  0.30422E-01
  0.28502E-01  0.23684E-01  0.16278E-01  0.67541E-02 -0.43656E-02 -0.16543E-01
 -0.29230E-01 -0.41898E-01 -0.54041E-01 -0.65089E-01 -0.74296E-01 -0.80737E-01
 -0.83475E-01 -0.81821E-01 -0.75553E-01 -0.65017E-01 -0.51111E-01 -0.35167E-01
 -0.18731E-01 -0.32992E-02  0.99318E-02  0.20203E-01  0.27193E-01  0.30933E-01
  0.31720E-01  0.30037E-01  0.26462E-01  0.21549E-01  0.15750E-01  0.94481E-02
  0.30239E-02 -0.31120E-02 -0.85551E-02 -0.12939E-01 -0.15946E-01 -0.17346E-01
  0.17732E-01  0.22172E-01  0.25041E-01  0.25784E-01  0.24090E-01  0.19950E-01
  0.13644E-01  0.56039E-02 -0.37154E-02 -0.13899E-01 -0.24529E-01 -0.35149E-01
 -0.45273E-01 -0.54403E-01 -0.61985E-01 -0.67361E-01 -0.69811E-01 -0.68734E-01
 -0.63859E-01 -0.55375E-01 -0.43955E-01 -0.30658E-01 -0.16759E-01 -0.35241E-02
  0.79782E-02  0.17012E-01  0.23217E-01  0.26590E-01  0.27405E-01  0.26097E-01
  0.23141E-01  0.18978E-01  0.14001E-01  0.85773E-02  0.30609E-02 -0.22103E-02
 -0.69135E-02 -0.10734E-01 -0.13383E-01 -0.14663E-01  0.14307E-01  0.18074E-01
  0.20469E-01  0.21058E-01  0.19610E-01  0.16140E-01  0.10890E-01  0.42439E-02
 -0.34078E-02 -0.11732E-01 -0.20414E-01 -0.29088E-01 -0.37334E-01 -0.44727E-01
 -0.50826E-01 -0.55135E-01 -0.57107E-01 -0.56257E-01 -0.52328E-01 -0.45418E-01
 -0.36017E-01 -0.24962E-01 -0.13304E-01 -0.21266E-02  0.76344E-02  0.15313E-01
  0.20578E-01  0.23430E-01  0.24124E-01  0.23036E-01  0.20545E-01  0.17003E-01
  0.12749E-01  0.81217E-02  0.34310E-02 -0.10545E-02 -0.50820E-02 -0.83875E-02
 -0.10717E-01 -0.11895E-01  0.10751E-01  0.13945E-01  0.15957E-01  0.16447E-01
  0.15263E-01  0.12440E-01  0.81835E-02  0.28097E-02 -0.33442E-02 -0.99890E-02
 -0.16872E-01 -0.23725E-01 -0.30238E-01 -0.36081E-01 -0.40894E-01 -0.44267E-01
 -0.45754E-01 -0.44968E-01 -0.41695E-01 -0.35982E-01 -0.28191E-01 -0.18984E-01
 -0.92427E-02  0.10479E-03  0.82503E-02  0.14624E-01  0.18948E-01  0.21233E-01
  0.21707E-01  0.20698E-01  0.18528E-01  0.15494E-01  0.11884E-01  0.79763E-02
  0.40197E-02  0.22598E-03 -0.31975E-02 -0.60293E-02 -0.80584E-02 -0.91377E-02
  0.73481E-02  0.10067E-01  0.11757E-01  0.12158E-01  0.11196E-01  0.89435E-02
  0.55807E-02  0.13587E-02 -0.34440E-02 -0.85766E-02 -0.13834E-01 -0.19030E-01
 -0.23966E-01 -0.28412E-01 -0.32084E-01 -0.34641E-01 -0.35717E-01 -0.34999E-01
 -0.32294E-01 -0.27587E-01 -0.21111E-01 -0.13393E-01 -0.51986E-02  0.26312E-02
  0.93778E-02  0.14565E-01  0.17990E-01  0.19694E-01  0.19888E-01  0.18865E-01
  0.16916E-01  0.14305E-01  0.11269E-01  0.80147E-02  0.47175E-02  0.15409E-02
 -0.13409E-02 -0.37452E-02 -0.55081E-02 -0.65086E-02  0.43080E-02  0.66511E-02
  0.80516E-02  0.83194E-02  0.74775E-02  0.56723E-02  0.30869E-02 -0.83618E-04
 -0.36373E-02 -0.73886E-02 -0.11189E-01 -0.14918E-01 -0.18450E-01 -0.21630E-01
 -0.24255E-01 -0.26081E-01 -0.26845E-01 -0.26294E-01 -0.24208E-01 -0.20449E-01
 -0.15083E-01 -0.85182E-02 -0.14855E-02  0.51634E-02  0.10729E-01  0.14821E-01
  0.17357E-01  0.18460E-01  0.18354E-01  0.17291E-01  0.15523E-01  0.13280E-01
  0.10758E-01  0.81004E-02  0.54170E-02  0.28187E-02  0.43913E-03 -0.15855E-02
 -0.31354E-02 -0.41020E-02  0.16861E-02  0.37369E-02  0.48653E-02  0.49471E-02
  0.41260E-02  0.26538E-02  0.74381E-03 -0.14603E-02 -0.38499E-02 -0.63318E-02
 -0.88284E-02 -0.11267E-01 -0.13563E-01 -0.15610E-01 -0.17291E-01 -0.18485E-01
 -0.19054E-01 -0.18798E-01 -0.17418E-01 -0.14585E-01 -0.10165E-01 -0.44644E-02
  0.17406E-02  0.74917E-02  0.12044E-01  0.15096E-01  0.16733E-01  0.17218E-01
  0.16815E-01  0.15732E-01  0.14150E-01  0.12254E-01  0.10203E-01  0.81004E-02
  0.60039E-02  0.39703E-02  0.20767E-02  0.40150E-03 -0.97734E-03 -0.19473E-02
 -0.58801E-03  0.12066E-02  0.20783E-02  0.19657E-02  0.11374E-02 -0.47009E-04
 -0.13455E-02 -0.26679E-02 -0.40003E-02 -0.53399E-02 -0.66733E-02 -0.79682E-02
 -0.91706E-02 -0.10222E-01 -0.11089E-01 -0.11772E-01 -0.12251E-01 -0.12363E-01
 -0.11712E-01 -0.97591E-02 -0.61698E-02 -0.11777E-02  0.43616E-02  0.93499E-02
  0.12984E-01  0.15049E-01  0.15816E-01  0.15706E-01  0.15036E-01  0.13970E-01
  0.12608E-01  0.11068E-01  0.94713E-02  0.78925E-02  0.63560E-02  0.48739E-02
  0.34641E-02  0.21409E-02  0.93973E-03 -0.20103E-04 -0.25685E-02 -0.10660E-02
 -0.43446E-03 -0.68219E-03 -0.14517E-02 -0.23184E-02 -0.30394E-02 -0.35806E-02
 -0.40025E-02 -0.43613E-02 -0.46825E-02 -0.49674E-02 -0.52045E-02 -0.53916E-02
 -0.55687E-02 -0.58284E-02 -0.62391E-02 -0.66725E-02 -0.66626E-02 -0.55187E-02
 -0.27522E-02  0.14631E-02  0.62262E-02  0.10367E-01  0.13078E-01  0.14243E-01
  0.14268E-01  0.13682E-01  0.12832E-01  0.11844E-01  0.10749E-01  0.95963E-02
  0.84545E-02  0.73703E-02  0.63519E-02  0.53883E-02  0.44539E-02  0.35074E-02
  0.25419E-02  0.16700E-02 -0.41443E-02 -0.30265E-02 -0.26146E-02 -0.28879E-02
 -0.34790E-02 -0.39764E-02 -0.41707E-02 -0.40706E-02 -0.37709E-02 -0.33459E-02
 -0.28339E-02 -0.22651E-02 -0.16793E-02 -0.11320E-02 -0.71459E-03 -0.57228E-03
 -0.83809E-03 -0.14389E-02 -0.19139E-02 -0.15156E-02  0.32521E-03  0.34966E-02
  0.71445E-02  0.10170E-01  0.11878E-01  0.12260E-01  0.11780E-01  0.10956E-01
  0.10097E-01  0.92867E-02  0.85156E-02  0.77767E-02  0.70855E-02  0.64565E-02
  0.58913E-02  0.53770E-02  0.48718E-02  0.43057E-02  0.36434E-02  0.29731E-02
 -0.50537E-02 -0.44132E-02 -0.41900E-02 -0.43703E-02 -0.46786E-02 -0.48033E-02
 -0.45883E-02 -0.40460E-02 -0.32525E-02 -0.22657E-02 -0.11257E-02  0.10755E-03
  0.13440E-02  0.24832E-02  0.34089E-02  0.39511E-02  0.39217E-02  0.33092E-02
  0.24981E-02  0.22010E-02  0.29995E-02  0.48452E-02  0.70225E-02  0.86508E-02
  0.92677E-02  0.89994E-02  0.82856E-02  0.75141E-02  0.68631E-02  0.63536E-02
  0.59534E-02  0.56305E-02  0.53607E-02  0.51281E-02  0.49269E-02  0.47500E-02
  0.45661E-02  0.43203E-02  0.39845E-02  0.36160E-02 -0.43481E-02 -0.50593E-02
 -0.53489E-02 -0.53229E-02 -0.50969E-02 -0.46887E-02 -0.40209E-02 -0.29969E-02
 -0.15671E-02  0.24854E-03  0.23577E-02  0.46037E-02  0.68028E-02  0.87988E-02
  0.10461E-01  0.11597E-01  0.11920E-01  0.11216E-01  0.96215E-02  0.76579E-02
  0.58677E-02  0.43739E-02  0.28653E-02  0.10503E-02 -0.93205E-03 -0.25954E-02
 -0.35401E-02 -0.37359E-02 -0.34152E-02 -0.28114E-02 -0.20459E-02 -0.11899E-02
 -0.33370E-03  0.42227E-03  0.10067E-02  0.14036E-02  0.16696E-02  0.19251E-02
  0.22816E-02  0.27350E-02 -0.46398E-02 -0.52434E-02 -0.57151E-02 -0.60173E-02
 -0.60529E-02 -0.57131E-02 -0.49482E-02 -0.37815E-02 -0.22682E-02 -0.46299E-03
  0.15629E-02  0.36916E-02  0.57758E-02  0.76938E-02  0.93501E-02  0.10582E-01
  0.11099E-01  0.10630E-01  0.92142E-02  0.72954E-02  0.54391E-02  0.39037E-02
  0.25396E-02  0.11188E-02 -0.30548E-03 -0.14163E-02 -0.19504E-02 -0.19159E-02
 -0.15097E-02 -0.91443E-03 -0.21790E-03  0.53002E-03  0.12613E-02  0.19029E-02
  0.24122E-02  0.27869E-02  0.30523E-02  0.32430E-02  0.33852E-02  0.34842E-02
 -0.48645E-02 -0.52794E-02 -0.58726E-02 -0.64660E-02 -0.67501E-02 -0.64919E-02
 -0.56699E-02 -0.44252E-02 -0.29161E-02 -0.12322E-02  0.57798E-03  0.24431E-02
  0.42629E-02  0.59531E-02  0.74494E-02  0.86229E-02  0.92135E-02  0.89453E-02
  0.77932E-02  0.61236E-02  0.44898E-02  0.32416E-02  0.23481E-02  0.15980E-02
  0.90929E-03  0.40187E-03  0.22005E-03  0.37044E-03  0.74406E-03  0.12318E-02
  0.17767E-02  0.23442E-02  0.28918E-02  0.33798E-02  0.37935E-02  0.41357E-02
  0.43908E-02  0.45029E-02  0.44125E-02  0.41379E-02 -0.46949E-02 -0.47776E-02
 -0.53123E-02 -0.60445E-02 -0.65241E-02 -0.64253E-02 -0.57270E-02 -0.46263E-02
 -0.33340E-02 -0.19596E-02 -0.54019E-03  0.88828E-03  0.22700E-02  0.35554E-02
  0.46994E-02  0.55966E-02  0.60367E-02  0.58011E-02  0.48879E-02  0.36417E-02
  0.25904E-02  0.20879E-02  0.20998E-02  0.23299E-02  0.25211E-02  0.26221E-02
  0.27213E-02  0.28987E-02  0.31617E-02  0.34739E-02  0.37989E-02  0.41144E-02
  0.44070E-02  0.46702E-02  0.49066E-02  0.51129E-02  0.52401E-02  0.51744E-02
  0.48104E-02  0.41934E-02 -0.39648E-02 -0.35984E-02 -0.38742E-02 -0.45493E-02
 -0.51430E-02 -0.52893E-02 -0.49335E-02 -0.42464E-02 -0.34233E-02 -0.25725E-02
 -0.17327E-02 -0.92316E-03 -0.16070E-03  0.54193E-03  0.11558E-02  0.15926E-02
  0.16978E-02  0.13513E-02  0.64180E-03 -0.55616E-04 -0.24997E-03  0.33107E-03
  0.15369E-02  0.29161E-02  0.40425E-02  0.47521E-02  0.51310E-02  0.53480E-02
  0.55114E-02  0.56388E-02  0.57098E-02  0.57198E-02  0.56896E-02  0.56421E-02
  0.55869E-02  0.55106E-02  0.53518E-02  0.49902E-02  0.43295E-02  0.34537E-02
 -0.27378E-02 -0.18981E-02 -0.17863E-02 -0.22408E-02 -0.28512E-02 -0.32713E-02
 -0.34009E-02 -0.33302E-02 -0.31877E-02 -0.30559E-02 -0.29736E-02 -0.29509E-02
 -0.29701E-02 -0.30027E-02 -0.30485E-02 -0.31661E-02 -0.34457E-02 -0.39049E-02
 -0.43607E-02 -0.44140E-02 -0.36411E-02 -0.19008E-02  0.50591E-03  0.29876E-02
  0.50097E-02  0.63500E-02  0.70966E-02  0.74626E-02  0.76065E-02  0.75820E-02
  0.73951E-02  0.70738E-02  0.66743E-02  0.62428E-02  0.57926E-02  0.53095E-02
  0.47475E-02  0.40265E-02  0.31007E-02  0.20892E-02 -0.11630E-02  0.99705E-04
  0.63460E-03  0.49203E-03 -0.48764E-04 -0.71000E-03 -0.13647E-02 -0.20152E-02
 -0.27007E-02 -0.34500E-02 -0.42785E-02 -0.51788E-02 -0.61055E-02 -0.69914E-02
 -0.77900E-02 -0.84973E-02 -0.91179E-02 -0.95807E-02 -0.96571E-02 -0.89844E-02
 -0.72538E-02 -0.44654E-02 -0.10324E-02  0.23922E-02  0.52424E-02  0.72652E-02
  0.85100E-02  0.91596E-02  0.93721E-02  0.92332E-02  0.87984E-02  0.81418E-02
  0.73509E-02  0.64879E-02  0.55758E-02  0.46182E-02  0.36109E-02  0.25403E-02
  0.14251E-02  0.40251E-03  0.69112E-03  0.23222E-02  0.32594E-02  0.34431E-02
  0.30086E-02  0.21413E-02  0.96647E-03 -0.45142E-03 -0.20632E-02 -0.38211E-02
 -0.56871E-02 -0.76206E-02 -0.95544E-02 -0.11392E-01 -0.13028E-01 -0.14362E-01
 -0.15287E-01 -0.15653E-01 -0.15238E-01 -0.13779E-01 -0.11120E-01 -0.73950E-02
 -0.30754E-02  0.11925E-02  0.48567E-02  0.76305E-02  0.94796E-02  0.10506E-01
  0.10842E-01  0.10615E-01  0.99443E-02  0.89547E-02  0.77587E-02  0.64350E-02
  0.50296E-02  0.35823E-02  0.21437E-02  0.77037E-03 -0.46175E-03 -0.14159E-02
  0.28655E-02  0.48562E-02  0.61606E-02  0.66239E-02  0.62577E-02  0.51613E-02
  0.34460E-02  0.12237E-02 -0.13807E-02 -0.42412E-02 -0.72540E-02 -0.10332E-01
 -0.13378E-01 -0.16261E-01 -0.18812E-01 -0.20822E-01 -0.22066E-01 -0.22319E-01
 -0.21382E-01 -0.19112E-01 -0.15512E-01 -0.10837E-01 -0.56005E-02 -0.43636E-03
  0.41095E-02  0.76984E-02  0.10200E-01  0.11634E-01  0.12119E-01  0.11824E-01
  0.10930E-01  0.96012E-02  0.79769E-02  0.61660E-02  0.42561E-02  0.23323E-02
  0.49459E-03 -0.11446E-02 -0.24660E-02 -0.33394E-02  0.54099E-02  0.77955E-02
  0.94414E-02  0.10111E-01  0.97205E-02  0.83090E-02  0.59845E-02  0.29032E-02
 -0.74927E-03 -0.47902E-02 -0.90612E-02 -0.13417E-01 -0.17701E-01 -0.21723E-01
 -0.25245E-01 -0.27971E-01 -0.29576E-01 -0.29768E-01 -0.28351E-01 -0.25270E-01
 -0.20658E-01 -0.14889E-01 -0.85479E-02 -0.23030E-02  0.32561E-02  0.77206E-02
  0.10883E-01  0.12719E-01  0.13355E-01  0.13004E-01  0.11887E-01  0.10197E-01
  0.81082E-02  0.57797E-02  0.33566E-02  0.96948E-03 -0.12481E-02 -0.31477E-02
 -0.45771E-02 -0.54053E-02  0.82639E-02  0.11097E-01  0.13081E-01  0.13904E-01
  0.13405E-01  0.11581E-01  0.85555E-02  0.45347E-02 -0.24499E-03 -0.55647E-02
 -0.11224E-01 -0.17007E-01 -0.22665E-01 -0.27920E-01 -0.32469E-01 -0.35952E-01
 -0.37973E-01 -0.38168E-01 -0.36310E-01 -0.32381E-01 -0.26621E-01 -0.19528E-01
 -0.11809E-01 -0.42350E-02  0.25078E-02  0.79282E-02  0.11766E-01  0.13992E-01
  0.14760E-01  0.14326E-01  0.12949E-01  0.10856E-01  0.82608E-02  0.53824E-02
  0.24258E-02 -0.43519E-03 -0.30407E-02 -0.52172E-02 -0.67851E-02 -0.76040E-02
  0.11221E-01  0.14554E-01  0.16908E-01  0.17888E-01  0.17255E-01  0.14966E-01
  0.11161E-01  0.60984E-02  0.65770E-04 -0.66747E-02 -0.13867E-01 -0.21213E-01
 -0.28371E-01 -0.34980E-01 -0.40668E-01 -0.45006E-01 -0.47507E-01 -0.47714E-01
 -0.45346E-01 -0.40410E-01 -0.33253E-01 -0.24537E-01 -0.15139E-01 -0.59886E-02
  0.21053E-02  0.85707E-02  0.13115E-01  0.15716E-01  0.16564E-01  0.15966E-01
  0.14242E-01  0.11676E-01  0.85326E-02  0.50715E-02  0.15435E-02 -0.18310E-02
 -0.48535E-02 -0.73214E-02 -0.90341E-02 -0.98431E-02  0.13995E-01  0.17888E-01
  0.20684E-01  0.21879E-01  0.21141E-01  0.18382E-01  0.13747E-01  0.75372E-02
  0.98953E-04 -0.82257E-02 -0.17088E-01 -0.26109E-01 -0.34890E-01 -0.43018E-01
 -0.50030E-01 -0.55358E-01 -0.58361E-01 -0.58463E-01 -0.55339E-01 -0.49054E-01
 -0.40107E-01 -0.29380E-01 -0.17984E-01 -0.70477E-02  0.24892E-02  0.10005E-01
  0.15215E-01  0.18124E-01  0.18955E-01  0.18069E-01  0.15875E-01  0.12747E-01
  0.90021E-02  0.49193E-02  0.77268E-03 -0.31648E-02 -0.66328E-02 -0.93905E-02
 -0.11225E-01 -0.11991E-01  0.16307E-01  0.20853E-01  0.24208E-01  0.25707E-01
  0.24905E-01  0.21671E-01  0.16163E-01  0.87163E-02 -0.25546E-03 -0.10297E-01
 -0.20937E-01 -0.31732E-01 -0.42274E-01 -0.52107E-01 -0.60613E-01 -0.66991E-01
 -0.70389E-01 -0.70119E-01 -0.65857E-01 -0.57763E-01 -0.46525E-01 -0.33300E-01
 -0.19519E-01 -0.65914E-02  0.43851E-02  0.12784E-01  0.18423E-01  0.21415E-01
  0.22048E-01  0.20726E-01  0.17933E-01  0.14141E-01  0.97234E-02  0.49701E-02
  0.16578E-03 -0.43632E-02 -0.82863E-02 -0.11322E-01 -0.13254E-01 -0.13939E-01
  0.17913E-01  0.23246E-01  0.27324E-01  0.29240E-01  0.28398E-01  0.24649E-01
  0.18206E-01  0.94601E-02 -0.11061E-02 -0.12924E-01 -0.25411E-01 -0.38078E-01
 -0.50515E-01 -0.62177E-01 -0.72210E-01 -0.79527E-01 -0.83090E-01 -0.82159E-01
 -0.76438E-01 -0.66158E-01 -0.52163E-01 -0.35904E-01 -0.19229E-01 -0.39730E-02
  0.84914E-02  0.17527E-01  0.23166E-01  0.25804E-01  0.25911E-01  0.23955E-01
  0.20441E-01  0.15888E-01  0.10719E-01  0.52465E-02 -0.22777E-03 -0.53368E-02
 -0.97004E-02 -0.13009E-01 -0.15033E-01 -0.15610E-01  0.18654E-01  0.24878E-01
  0.29831E-01  0.32274E-01  0.31408E-01  0.27092E-01  0.19659E-01  0.96003E-02
 -0.25307E-02 -0.16094E-01 -0.30441E-01 -0.45048E-01 -0.59447E-01 -0.72916E-01
 -0.84324E-01 -0.92355E-01 -0.95891E-01 -0.94210E-01 -0.87006E-01 -0.74473E-01
 -0.57506E-01 -0.37807E-01 -0.17689E-01  0.44443E-03  0.14742E-01  0.24398E-01