       #
       # Generated by the Wannier90 code http://www.wannier.org
       # On  1Apr2018 at 06:43:27 
       #
CRYSTAL
PRIMVEC
   3.0715001   0.0000000   0.0000000
   0.0300198   3.0713534   0.0000000
   0.0300198   0.0297278   3.0712095
CONVVEC
   3.0715001   0.0000000   0.0000000
   0.0300198   3.0713534   0.0000000
   0.0300198   0.0297278   3.0712095
PRIMCOORD
     1  1
Sn      0.0000000   0.0000000   0.0000000


BEGIN_BLOCK_DATAGRID_3D
3D_field
BEGIN_DATAGRID_3D_UNKNOWN
    40    40    40
   -3.288117   -3.256135   -3.224770
   5.9894252   0.0000000   0.0000000
   0.0585386   5.9891391   0.0000000
   0.0585386   0.0579692   5.9888585
  0.47646E-02  0.53240E-02  0.55325E-02  0.49845E-02  0.36461E-02  0.17965E-02
 -0.28177E-03 -0.25166E-02 -0.50065E-02 -0.78449E-02 -0.10988E-01 -0.14238E-01
 -0.17326E-01 -0.19999E-01 -0.22051E-01 -0.23335E-01 -0.23865E-01 -0.23965E-01
 -0.24165E-01 -0.24767E-01 -0.25458E-01 -0.25518E-01 -0.24522E-01 -0.22802E-01
 -0.21165E-01 -0.20159E-01 -0.19681E-01 -0.19220E-01 -0.18338E-01 -0.16893E-01
 -0.14961E-01 -0.12689E-01 -0.10252E-01 -0.78343E-02 -0.55728E-02 -0.34928E-02
 -0.15327E-02  0.31306E-03  0.18556E-02  0.27737E-02  0.53259E-02  0.57059E-02
  0.58604E-02  0.53978E-02  0.42253E-02  0.25514E-02  0.62960E-03 -0.14546E-02
 -0.37750E-02 -0.64105E-02 -0.93055E-02 -0.12245E-01 -0.14941E-01 -0.17128E-01
 -0.18596E-01 -0.19191E-01 -0.18945E-01 -0.18235E-01 -0.17698E-01 -0.17756E-01
 -0.18185E-01 -0.18295E-01 -0.17643E-01 -0.16521E-01 -0.15663E-01 -0.15523E-01
 -0.15897E-01 -0.16198E-01 -0.15946E-01 -0.15001E-01 -0.13445E-01 -0.11442E-01
 -0.91843E-02 -0.68860E-02 -0.47160E-02 -0.27210E-02 -0.84587E-03  0.92054E-03
  0.24032E-02  0.32946E-02  0.55615E-02  0.58708E-02  0.61122E-02  0.59023E-02
  0.50627E-02  0.36963E-02  0.20100E-02  0.11827E-03 -0.19903E-02 -0.43469E-02
 -0.68788E-02 -0.93745E-02 -0.11554E-01 -0.13166E-01 -0.14011E-01 -0.13955E-01
 -0.13040E-01 -0.11660E-01 -0.10487E-01 -0.10024E-01 -0.10178E-01 -0.10380E-01
 -0.10210E-01 -0.98505E-02 -0.98523E-02 -0.10517E-01 -0.11583E-01 -0.12477E-01
 -0.12756E-01 -0.12283E-01 -0.11133E-01 -0.94601E-02 -0.74581E-02 -0.53486E-02
 -0.33127E-02 -0.14216E-02  0.34482E-03  0.19720E-02  0.32900E-02  0.40226E-02
  0.50362E-02  0.54012E-02  0.58799E-02  0.60884E-02  0.57552E-02  0.48627E-02
  0.35545E-02  0.19720E-02  0.18420E-03 -0.17672E-02 -0.37811E-02 -0.56590E-02
 -0.71519E-02 -0.80370E-02 -0.81429E-02 -0.73509E-02 -0.56929E-02 -0.35192E-02
 -0.14816E-02 -0.18733E-03  0.20267E-03 -0.20381E-04 -0.52847E-03 -0.13095E-02
 -0.25589E-02 -0.42930E-02 -0.61729E-02 -0.77082E-02 -0.85555E-02 -0.86186E-02
 -0.79619E-02 -0.67219E-02 -0.50828E-02 -0.32544E-02 -0.14150E-02  0.33619E-03
  0.19576E-02  0.33769E-02  0.44149E-02  0.48359E-02  0.36907E-02  0.41898E-02
  0.49799E-02  0.56852E-02  0.59629E-02  0.56851E-02  0.49228E-02  0.38287E-02
  0.25465E-02  0.11949E-02 -0.94382E-04 -0.11438E-02 -0.17486E-02 -0.17267E-02
 -0.93683E-03  0.72819E-03  0.32695E-02  0.64194E-02  0.95742E-02  0.12000E-01
  0.13191E-01  0.13045E-01  0.11745E-01  0.95395E-02  0.67004E-02  0.35938E-02
  0.67264E-03 -0.16685E-02 -0.32177E-02 -0.39396E-02 -0.39010E-02 -0.32272E-02
 -0.20899E-02 -0.67702E-03  0.84865E-03  0.23629E-02  0.37526E-02  0.48720E-02
  0.55234E-02  0.55165E-02  0.17989E-02  0.24500E-02  0.35294E-02  0.46953E-02
  0.55801E-02  0.59818E-02  0.59072E-02  0.55030E-02  0.49593E-02  0.44455E-02
  0.41060E-02  0.40893E-02  0.45562E-02  0.56520E-02  0.74872E-02  0.10145E-01
  0.13638E-01  0.17765E-01  0.21979E-01  0.25455E-01  0.27391E-01  0.27334E-01
  0.25317E-01  0.21790E-01  0.17429E-01  0.12942E-01  0.88929E-02  0.56114E-02
  0.32144E-02  0.16962E-02  0.98800E-03  0.96602E-03  0.14625E-02  0.23071E-02
  0.33558E-02  0.44714E-02  0.54860E-02  0.61928E-02  0.63791E-02  0.58971E-02
 -0.34603E-03  0.44774E-03  0.17504E-02  0.32807E-02  0.46980E-02  0.57792E-02
  0.64933E-02  0.69672E-02  0.73924E-02  0.79406E-02  0.87415E-02  0.99159E-02
  0.11600E-01  0.13917E-01  0.16943E-01  0.20698E-01  0.25138E-01  0.30061E-01
  0.34961E-01  0.39017E-01  0.41318E-01  0.41239E-01  0.38731E-01  0.34328E-01
  0.28906E-01  0.23343E-01  0.18262E-01  0.13981E-01  0.10608E-01  0.81538E-02
  0.65710E-02  0.57388E-02  0.54828E-02  0.56318E-02  0.60466E-02  0.65858E-02
  0.70602E-02  0.72390E-02  0.69098E-02  0.59584E-02 -0.26589E-02 -0.17232E-02
 -0.23781E-03  0.15871E-02  0.34759E-02  0.52334E-02  0.68191E-02  0.83257E-02
  0.99000E-02  0.11673E-01  0.13746E-01  0.16229E-01  0.19256E-01  0.22937E-01
  0.27296E-01  0.32253E-01  0.37641E-01  0.43180E-01  0.48378E-01  0.52501E-01
  0.54727E-01  0.54474E-01  0.51680E-01  0.46859E-01  0.40867E-01  0.34565E-01
  0.28583E-01  0.23278E-01  0.18825E-01  0.15308E-01  0.12725E-01  0.10974E-01
  0.98782E-02  0.92482E-02  0.89237E-02  0.87521E-02  0.85493E-02  0.81009E-02
  0.72165E-02  0.58053E-02 -0.52311E-02 -0.41367E-02 -0.24514E-02 -0.32151E-03
  0.20556E-02  0.45376E-02  0.70842E-02  0.97370E-02  0.12572E-01  0.15668E-01
  0.19111E-01  0.23015E-01  0.27507E-01  0.32667E-01  0.38455E-01  0.44684E-01
  0.51055E-01  0.57176E-01  0.62537E-01  0.66508E-01  0.68441E-01  0.67904E-01
  0.64882E-01  0.59816E-01  0.53437E-01  0.46510E-01  0.39656E-01  0.33303E-01
  0.27720E-01  0.23066E-01  0.19391E-01  0.16626E-01  0.14610E-01  0.13142E-01
  0.12021E-01  0.11068E-01  0.10106E-01  0.89573E-02  0.74709E-02  0.55750E-02
 -0.81555E-02 -0.68742E-02 -0.49258E-02 -0.24072E-02  0.55485E-03  0.38641E-02
  0.74674E-02  0.11343E-01  0.15502E-01  0.19993E-01  0.24908E-01  0.30352E-01
  0.36413E-01  0.43108E-01  0.50335E-01  0.57843E-01  0.65244E-01  0.72049E-01
  0.77697E-01  0.81610E-01  0.83282E-01  0.82423E-01  0.79079E-01  0.73640E-01
  0.66735E-01  0.59063E-01  0.51261E-01  0.43832E-01  0.37125E-01  0.31341E-01
  0.26551E-01  0.22717E-01  0.19713E-01  0.17343E-01  0.15386E-01  0.13623E-01
  0.11869E-01  0.99738E-02  0.78282E-02  0.53833E-02 -0.11388E-01 -0.98798E-02
 -0.75873E-02 -0.45672E-02 -0.89254E-03  0.33607E-02  0.81041E-02  0.13256E-01
  0.18789E-01  0.24755E-01  0.31246E-01  0.38331E-01  0.46020E-01  0.54259E-01
  0.62908E-01  0.71692E-01  0.80171E-01  0.87768E-01  0.93852E-01  0.97848E-01
  0.99332E-01  0.98118E-01  0.94311E-01  0.88297E-01  0.80666E-01  0.72101E-01
  0.63268E-01  0.54737E-01  0.46919E-01  0.40039E-01  0.34169E-01  0.29272E-01
  0.25243E-01  0.21920E-01  0.19085E-01  0.16500E-01  0.13950E-01  0.11285E-01
  0.84232E-02  0.53443E-02 -0.14730E-01 -0.12934E-01 -0.10218E-01 -0.65970E-02
 -0.21039E-02  0.31799E-02  0.91197E-02  0.15591E-01  0.22557E-01  0.30075E-01
  0.38214E-01  0.46982E-01  0.56318E-01  0.66123E-01  0.76233E-01  0.86333E-01
  0.95894E-01  0.10423E+00  0.11066E+00  0.11462E+00  0.11580E+00  0.11411E+00
  0.10976E+00  0.10313E+00  0.94796E-01  0.85400E-01  0.75594E-01  0.65985E-01
  0.57055E-01  0.49090E-01  0.42174E-01  0.36257E-01  0.31229E-01  0.26946E-01
  0.23219E-01  0.19807E-01  0.16467E-01  0.13021E-01  0.93941E-02  0.55964E-02
 -0.17906E-01 -0.15741E-01 -0.12531E-01 -0.82393E-02 -0.28663E-02  0.34906E-02
  0.10659E-01  0.18491E-01  0.26947E-01  0.36058E-01  0.45845E-01  0.56271E-01
  0.67257E-01  0.78687E-01  0.90328E-01  0.10173E+00  0.11218E+00  0.12089E+00
  0.12717E+00  0.13062E+00  0.13111E+00  0.12876E+00  0.12385E+00  0.11681E+00
  0.10812E+00  0.98292E-01  0.87858E-01  0.77391E-01  0.67442E-01  0.58414E-01
  0.50474E-01  0.43594E-01  0.37645E-01  0.32472E-01  0.27891E-01  0.23664E-01
  0.19532E-01  0.15293E-01  0.10865E-01  0.62788E-02 -0.20655E-01 -0.18029E-01
 -0.14266E-01 -0.92632E-02 -0.29878E-02  0.44506E-02  0.12859E-01  0.22085E-01
  0.32056E-01  0.42740E-01  0.54104E-01  0.66121E-01  0.78746E-01  0.91816E-01
  0.10491E+00  0.11732E+00  0.12811E+00  0.13645E+00  0.14180E+00  0.14403E+00
  0.14333E+00  0.14006E+00  0.13464E+00  0.12752E+00  0.11904E+00  0.10947E+00
  0.99098E-01  0.88340E-01  0.77743E-01  0.67835E-01  0.58952E-01  0.51183E-01
  0.44428E-01  0.38490E-01  0.33139E-01  0.28125E-01  0.23197E-01  0.18155E-01
  0.12910E-01  0.74975E-02 -0.22765E-01 -0.19580E-01 -0.15219E-01 -0.94906E-02
 -0.23178E-02  0.61834E-02  0.15813E-01  0.26413E-01  0.37860E-01  0.50035E-01
  0.62870E-01  0.76391E-01  0.90580E-01  0.10512E+00  0.11928E+00  0.13199E+00
  0.14220E+00  0.14921E+00  0.15278E+00  0.15317E+00  0.15088E+00  0.14651E+00
  0.14063E+00  0.13369E+00  0.12594E+00  0.11739E+00  0.10799E+00  0.97835E-01
  0.87312E-01  0.76988E-01  0.67404E-01  0.58887E-01  0.51457E-01  0.44891E-01
  0.38873E-01  0.33121E-01  0.27416E-01  0.21593E-01  0.15557E-01  0.93223E-02
 -0.24086E-01 -0.20240E-01 -0.15250E-01 -0.87961E-02 -0.73928E-03  0.87849E-02
  0.19557E-01  0.31412E-01  0.44191E-01  0.57708E-01  0.71883E-01  0.86780E-01
  0.10232E+00  0.11791E+00  0.13239E+00  0.14444E+00  0.15307E+00  0.15790E+00
  0.15917E+00  0.15747E+00  0.15353E+00  0.14806E+00  0.14170E+00  0.13498E+00
  0.12816E+00  0.12112E+00  0.11347E+00  0.10487E+00  0.95339E-01  0.85307E-01
  0.75474E-01  0.66462E-01  0.58514E-01  0.51443E-01  0.44863E-01  0.38463E-01
  0.32062E-01  0.25530E-01  0.18766E-01  0.11748E-01 -0.24649E-01 -0.20045E-01
 -0.14400E-01 -0.71990E-02  0.17663E-02  0.12287E-01  0.24063E-01  0.36932E-01
  0.50763E-01  0.65384E-01  0.80714E-01  0.96772E-01  0.11328E+00  0.12928E+00
  0.14323E+00  0.15371E+00  0.16002E+00  0.16234E+00  0.16137E+00  0.15799E+00
  0.15289E+00  0.14660E+00  0.13969E+00  0.13284E+00  0.12659E+00  0.12093E+00
  0.11531E+00  0.10889E+00  0.10114E+00  0.92157E-01  0.82656E-01  0.73516E-01
  0.65249E-01  0.57796E-01  0.50782E-01  0.43883E-01  0.36926E-01  0.29775E-01
  0.22317E-01  0.14547E-01 -0.24801E-01 -0.19385E-01 -0.13054E-01 -0.50278E-02
  0.49606E-02  0.16516E-01  0.29152E-01  0.42703E-01  0.57189E-01  0.72572E-01
  0.88783E-01  0.10568E+00  0.12265E+00  0.13836E+00  0.15105E+00  0.15941E+00
  0.16322E+00  0.16331E+00  0.16091E+00  0.15695E+00  0.15174E+00  0.14525E+00
  0.13773E+00  0.13004E+00  0.12335E+00  0.11821E+00  0.11416E+00  0.10996E+00
  0.10439E+00  0.97039E-01  0.88424E-01  0.79561E-01  0.71214E-01  0.63531E-01
  0.56245E-01  0.49040E-01  0.41669E-01  0.33918E-01  0.25701E-01  0.17156E-01
 -0.25091E-01 -0.18901E-01 -0.11875E-01 -0.29111E-02  0.82693E-02  0.20952E-01
  0.34334E-01  0.48241E-01  0.62954E-01  0.78703E-01  0.95443E-01  0.11278E+00
  0.12973E+00  0.14461E+00  0.15561E+00  0.16173E+00  0.16335E+00  0.16201E+00
  0.15941E+00  0.15639E+00  0.15249E+00  0.14664E+00  0.13843E+00  0.12902E+00
  0.12053E+00  0.11458E+00  0.11114E+00  0.10866E+00  0.10523E+00  0.99750E-01
  0.92389E-01  0.84134E-01  0.75940E-01  0.68206E-01  0.60835E-01  0.53503E-01
  0.45800E-01  0.37370E-01  0.28237E-01  0.18870E-01 -0.25804E-01 -0.19002E-01
 -0.11356E-01 -0.14513E-02  0.10959E-01  0.24764E-01  0.38776E-01  0.52791E-01
  0.67402E-01  0.83164E-01  0.10008E+00  0.11750E+00  0.13405E+00  0.14783E+00
  0.15710E+00  0.16123E+00  0.16123E+00  0.15933E+00  0.15766E+00  0.15681E+00
  0.15533E+00  0.15076E+00  0.14187E+00  0.13009E+00  0.11880E+00  0.11094E+00
  0.10718E+00  0.10576E+00  0.10410E+00  0.10039E+00  0.94372E-01  0.86895E-01
  0.79029E-01  0.71410E-01  0.64115E-01  0.56783E-01  0.48781E-01  0.39611E-01
  0.29484E-01  0.19333E-01 -0.26585E-01 -0.19442E-01 -0.11411E-01 -0.84254E-03
  0.12471E-01  0.27094E-01  0.41511E-01  0.55481E-01  0.69839E-01  0.85402E-01
  0.10222E+00  0.11944E+00  0.13543E+00  0.14816E+00  0.15597E+00  0.15858E+00
  0.15750E+00  0.15553E+00  0.15514E+00  0.15668E+00  0.15768E+00  0.15442E+00
  0.14491E+00  0.13088E+00  0.11685E+00  0.10702E+00  0.10265E+00  0.10187E+00
  0.10153E+00  0.99249E-01  0.94388E-01  0.87666E-01  0.80212E-01  0.72827E-01
  0.65709E-01  0.58449E-01  0.50229E-01  0.40462E-01  0.29563E-01  0.18886E-01
 -0.26678E-01 -0.19525E-01 -0.11503E-01 -0.86031E-03  0.12617E-01  0.27390E-01
  0.41827E-01  0.55653E-01  0.69768E-01  0.85070E-01  0.10162E+00  0.11848E+00
  0.13392E+00  0.14586E+00  0.15273E+00  0.15439E+00  0.15262E+00  0.15053E+00
  0.15077E+00  0.15353E+00  0.15579E+00  0.15313E+00  0.14320E+00  0.12799E+00
  0.11266E+00  0.10205E+00  0.97658E-01  0.97480E-01  0.98033E-01  0.96666E-01
  0.92578E-01  0.86436E-01  0.79389E-01  0.72298E-01  0.65401E-01  0.58270E-01
  0.50032E-01  0.40101E-01  0.29017E-01  0.18305E-01 -0.25662E-01 -0.18832E-01
 -0.11257E-01 -0.12444E-02  0.11495E-01  0.25603E-01  0.39593E-01  0.53179E-01
  0.67117E-01  0.82159E-01  0.98317E-01  0.11472E+00  0.12972E+00  0.14129E+00
  0.14785E+00  0.14920E+00  0.14706E+00  0.14448E+00  0.14411E+00  0.14616E+00
  0.14772E+00  0.14458E+00  0.13462E+00  0.11989E+00  0.10549E+00  0.95952E-01
  0.92528E-01  0.93049E-01  0.94045E-01  0.92978E-01  0.89170E-01  0.83348E-01
  0.76648E-01  0.69871E-01  0.63214E-01  0.56280E-01  0.48304E-01  0.38796E-01
  0.28268E-01  0.18088E-01 -0.23912E-01 -0.17687E-01 -0.10884E-01 -0.20089E-02
  0.93270E-02  0.22151E-01  0.35315E-01  0.48542E-01  0.62295E-01  0.77021E-01
  0.92662E-01  0.10852E+00  0.12319E+00  0.13480E+00  0.14168E+00  0.14342E+00
  0.14135E+00  0.13812E+00  0.13617E+00  0.13592E+00  0.13520E+00  0.13080E+00
  0.12127E+00  0.10858E+00  0.96958E-01  0.89927E-01  0.88043E-01  0.89068E-01
  0.89897E-01  0.88465E-01  0.84438E-01  0.78674E-01  0.72247E-01  0.65795E-01
  0.59407E-01  0.52749E-01  0.45276E-01  0.36650E-01  0.27237E-01  0.17999E-01
 -0.22270E-01 -0.16841E-01 -0.10923E-01 -0.33168E-02  0.64265E-02  0.17750E-01
  0.29900E-01  0.42612E-01  0.56030E-01  0.70272E-01  0.85220E-01  0.10041E+00
  0.11478E+00  0.12668E+00  0.13440E+00  0.13720E+00  0.13586E+00  0.13241E+00
  0.12888E+00  0.12597E+00  0.12258E+00  0.11685E+00  0.10818E+00  0.98246E-01
  0.90032E-01  0.85665E-01  0.84957E-01  0.85786E-01  0.85689E-01  0.83284E-01
  0.78659E-01  0.72774E-01  0.66572E-01  0.60466E-01  0.54396E-01  0.48091E-01
  0.41237E-01  0.33650E-01  0.25518E-01  0.17346E-01 -0.21282E-01 -0.16725E-01
 -0.11631E-01 -0.51187E-02  0.32355E-02  0.13182E-01  0.24280E-01  0.36288E-01
  0.49108E-01  0.62616E-01  0.76671E-01  0.91027E-01  0.10498E+00  0.11718E+00
  0.12598E+00  0.13037E+00  0.13055E+00  0.12778E+00  0.12364E+00  0.11904E+00
  0.11381E+00  0.10736E+00  0.99771E-01  0.92318E-01  0.86764E-01  0.83993E-01
  0.83311E-01  0.82951E-01  0.81234E-01  0.77477E-01  0.72102E-01  0.66057E-01
  0.60078E-01  0.54343E-01  0.48654E-01  0.42772E-01  0.36546E-01  0.29899E-01
  0.22885E-01  0.15670E-01 -0.20818E-01 -0.17099E-01 -0.12700E-01 -0.70222E-02
  0.26574E-03  0.90681E-02  0.19128E-01  0.30234E-01  0.42174E-01  0.54710E-01
  0.67698E-01  0.81042E-01  0.94342E-01  0.10659E+00  0.11637E+00  0.12256E+00
  0.12482E+00  0.12374E+00  0.12038E+00  0.11564E+00  0.11000E+00  0.10366E+00
  0.97109E-01  0.91236E-01  0.86885E-01  0.84158E-01  0.82240E-01  0.79894E-01
  0.76215E-01  0.71080E-01  0.65065E-01  0.58957E-01  0.53234E-01  0.47880E-01
  0.42618E-01  0.37222E-01  0.31605E-01  0.25727E-01  0.19568E-01  0.13143E-01
 -0.20337E-01 -0.17355E-01 -0.13543E-01 -0.85218E-02 -0.20707E-02  0.57567E-02
  0.14783E-01  0.24828E-01  0.35674E-01  0.47080E-01  0.58902E-01  0.71099E-01
  0.83473E-01  0.95371E-01  0.10573E+00  0.11346E+00  0.11792E+00  0.11912E+00
  0.11760E+00  0.11408E+00  0.10925E+00  0.10369E+00  0.97966E-01  0.92697E-01
  0.88221E-01  0.84355E-01  0.80477E-01  0.75936E-01  0.70456E-01  0.64263E-01
  0.57901E-01  0.51896E-01  0.46465E-01  0.41479E-01  0.36657E-01  0.31791E-01
  0.26779E-01  0.21560E-01  0.16086E-01  0.10346E-01 -0.19391E-01 -0.17016E-01
 -0.13726E-01 -0.92897E-02 -0.35753E-02  0.33577E-02  0.11354E-01  0.20256E-01
  0.29899E-01  0.40102E-01  0.50728E-01  0.61723E-01  0.72983E-01  0.84140E-01
  0.94497E-01  0.10317E+00  0.10941E+00  0.11282E+00  0.11350E+00  0.11188E+00
  0.10853E+00  0.10403E+00  0.98906E-01  0.93603E-01  0.88306E-01  0.82900E-01
  0.77113E-01  0.70798E-01  0.64088E-01  0.57347E-01  0.50973E-01  0.45218E-01
  0.40101E-01  0.35461E-01  0.31071E-01  0.26743E-01  0.22335E-01  0.17737E-01
  0.12894E-01  0.78187E-02 -0.17843E-01 -0.15951E-01 -0.13133E-01 -0.92499E-02
 -0.42322E-02  0.18512E-02  0.88455E-02  0.16606E-01  0.25026E-01  0.34004E-01
  0.43439E-01  0.53244E-01  0.63328E-01  0.73491E-01  0.83329E-01  0.92223E-01
  0.99473E-01  0.10452E+00  0.10712E+00  0.10737E+00  0.10557E+00  0.10214E+00
  0.97470E-01  0.91943E-01  0.85797E-01  0.79137E-01  0.72048E-01  0.64723E-01
  0.57490E-01  0.50693E-01  0.44556E-01  0.39134E-01  0.34347E-01  0.30053E-01
  0.26089E-01  0.22279E-01  0.18446E-01  0.14445E-01  0.10223E-01  0.58134E-02
 -0.15780E-01 -0.14256E-01 -0.11847E-01 -0.84793E-02 -0.41200E-02  0.11596E-02
  0.72080E-02  0.13884E-01  0.21117E-01  0.28880E-01  0.37129E-01  0.45778E-01
  0.54720E-01  0.63817E-01  0.72841E-01  0.81391E-01  0.88914E-01  0.94831E-01
  0.98715E-01  0.10038E+00  0.99848E-01  0.97313E-01  0.93066E-01  0.87457E-01
  0.80837E-01  0.73538E-01  0.65898E-01  0.58293E-01  0.51090E-01  0.44550E-01
  0.38770E-01  0.33715E-01  0.29287E-01  0.25377E-01  0.21849E-01  0.18527E-01
  0.15215E-01  0.11768E-01  0.81416E-02  0.43690E-02 -0.13361E-01 -0.12102E-01
 -0.10032E-01 -0.71211E-02 -0.33704E-02  0.11543E-02  0.63196E-02  0.11993E-01
  0.18117E-01  0.24707E-01  0.31782E-01  0.39297E-01  0.47157E-01  0.55248E-01
  0.63410E-01  0.71370E-01  0.78694E-01  0.84855E-01  0.89358E-01  0.91846E-01
  0.92155E-01  0.90307E-01  0.86501E-01  0.81076E-01  0.74457E-01  0.67108E-01
  0.59501E-01  0.52076E-01  0.45177E-01  0.39003E-01  0.33605E-01  0.28937E-01
  0.24917E-01  0.21440E-01  0.18365E-01  0.15501E-01  0.12661E-01  0.97205E-02
  0.66409E-02  0.34417E-02 -0.10772E-01 -0.96927E-02 -0.78892E-02 -0.53669E-02
 -0.21602E-02  0.16649E-02  0.60054E-02  0.10756E-01  0.15867E-01  0.21366E-01
  0.27306E-01  0.33706E-01  0.40533E-01  0.47707E-01  0.55091E-01  0.62441E-01
  0.69377E-01  0.75417E-01  0.80069E-01  0.82918E-01  0.83702E-01  0.82348E-01
  0.78991E-01  0.73946E-01  0.67660E-01  0.60638E-01  0.53381E-01  0.46328E-01
  0.39806E-01  0.34005E-01  0.28992E-01  0.24742E-01  0.21173E-01  0.18158E-01
  0.15530E-01  0.13104E-01  0.10710E-01  0.82421E-02  0.56556E-02  0.29501E-02
 -0.82133E-02 -0.72566E-02 -0.56528E-02 -0.34348E-02 -0.68250E-03  0.25191E-02
  0.60945E-02  0.99855E-02  0.14168E-01  0.18668E-01  0.23548E-01  0.28880E-01
  0.34707E-01  0.41012E-01  0.47672E-01  0.54434E-01  0.60925E-01  0.66701E-01
  0.71297E-01  0.74291E-01  0.75362E-01  0.74370E-01  0.71405E-01  0.66770E-01
  0.60919E-01  0.54357E-01  0.47567E-01  0.40958E-01  0.34846E-01  0.29442E-01
  0.24847E-01  0.21051E-01  0.17951E-01  0.15388E-01  0.13187E-01  0.11182E-01
  0.92279E-02  0.72135E-02  0.50703E-02  0.27799E-02 -0.58327E-02 -0.49717E-02
 -0.35107E-02 -0.15074E-02  0.89804E-03  0.35725E-02  0.64484E-02  0.95226E-02
  0.12824E-01  0.16394E-01  0.20300E-01  0.24638E-01  0.29509E-01  0.34945E-01
  0.40848E-01  0.46972E-01  0.52976E-01  0.58458E-01  0.62980E-01  0.66088E-01
  0.67388E-01  0.66671E-01  0.63998E-01  0.59687E-01  0.54218E-01  0.48110E-01
  0.41822E-01  0.35726E-01  0.30109E-01  0.25181E-01  0.21062E-01  0.17744E-01
  0.15105E-01  0.12973E-01  0.11185E-01  0.95996E-02  0.80835E-02  0.65033E-02
  0.47578E-02  0.28170E-02 -0.36565E-02 -0.28842E-02 -0.15323E-02  0.31773E-03
  0.24580E-02  0.46879E-02  0.69255E-02  0.92151E-02  0.11654E-01  0.14330E-01
  0.17325E-01  0.20746E-01  0.24709E-01  0.29268E-01  0.34349E-01  0.39758E-01
  0.45223E-01  0.50392E-01  0.54816E-01  0.57971E-01  0.59394E-01  0.58848E-01
  0.56403E-01  0.52398E-01  0.47325E-01  0.41698E-01  0.35965E-01  0.30465E-01
  0.25444E-01  0.21083E-01  0.17489E-01  0.14655E-01  0.12467E-01  0.10763E-01
  0.93949E-02  0.82397E-02  0.71569E-02  0.59883E-02  0.46070E-02  0.29773E-02
 -0.16133E-02 -0.92864E-03  0.31109E-03  0.20040E-02  0.38853E-02  0.56957E-02
  0.73347E-02  0.88792E-02  0.10486E-01  0.12294E-01  0.14415E-01  0.16966E-01
  0.20058E-01  0.23742E-01  0.27974E-01  0.32630E-01  0.37507E-01  0.42264E-01
  0.46388E-01  0.49294E-01  0.50547E-01  0.50015E-01  0.47851E-01  0.44370E-01
  0.39951E-01  0.35005E-01  0.29944E-01  0.25112E-01  0.20747E-01  0.17001E-01
  0.13958E-01  0.11618E-01  0.98887E-02  0.86278E-02  0.76984E-02  0.69747E-02
  0.63094E-02  0.55324E-02  0.45055E-02  0.31860E-02  0.31586E-03  0.91910E-03
  0.20131E-02  0.34808E-02  0.50306E-02  0.63838E-02  0.74414E-02  0.83008E-02
  0.91463E-02  0.10145E-01  0.11430E-01  0.13132E-01  0.15363E-01  0.18179E-01
  0.21570E-01  0.25471E-01  0.29700E-01  0.33853E-01  0.37319E-01  0.39519E-01
  0.40212E-01  0.39549E-01  0.37836E-01  0.35270E-01  0.31936E-01  0.27990E-01
  0.23759E-01  0.19641E-01  0.15940E-01  0.12822E-01  0.10352E-01  0.85301E-02
  0.72806E-02  0.64750E-02  0.59770E-02  0.56590E-02  0.53804E-02  0.49801E-02
  0.43184E-02  0.33373E-02  0.19478E-02  0.24880E-02  0.34030E-02  0.45632E-02
  0.56882E-02  0.65323E-02  0.70298E-02  0.72906E-02  0.74901E-02  0.77821E-02
  0.83000E-02  0.91830E-02  0.10559E-01  0.12508E-01  0.15062E-01  0.18192E-01
  0.21697E-01  0.25073E-01  0.27619E-01  0.28837E-01  0.28783E-01  0.27973E-01
  0.26870E-01  0.25487E-01  0.23505E-01  0.20743E-01  0.17425E-01  0.14034E-01
  0.10993E-01  0.85117E-02  0.66450E-02  0.53721E-02  0.46153E-02  0.42498E-02
  0.41424E-02  0.41783E-02  0.42436E-02  0.42021E-02  0.39145E-02  0.32973E-02
  0.29497E-02  0.34593E-02  0.41936E-02  0.50062E-02  0.56615E-02  0.59923E-02
  0.59890E-02  0.57636E-02  0.54523E-02  0.51655E-02  0.50146E-02  0.51414E-02
  0.56923E-02  0.67797E-02  0.84793E-02  0.10796E-01  0.13517E-01  0.16091E-01
  0.17792E-01  0.18214E-01  0.17646E-01  0.16848E-01  0.16361E-01  0.16022E-01
  0.15202E-01  0.13470E-01  0.10986E-01  0.83033E-02  0.59346E-02  0.41180E-02
  0.28823E-02  0.21745E-02  0.19029E-02  0.19436E-02  0.21749E-02  0.25088E-02
  0.28714E-02  0.31586E-02  0.32297E-02  0.29691E-02  0.56374E-02  0.59524E-02
  0.59488E-02  0.52098E-02  0.36859E-02  0.16604E-02 -0.57151E-03 -0.29412E-02
 -0.55717E-02 -0.85850E-02 -0.11951E-01 -0.15471E-01 -0.18876E-01 -0.21932E-01
 -0.24465E-01 -0.26320E-01 -0.27409E-01 -0.27860E-01 -0.28040E-01 -0.28296E-01
 -0.28611E-01 -0.28632E-01 -0.28082E-01 -0.27088E-01 -0.26051E-01 -0.25208E-01
 -0.24427E-01 -0.23390E-01 -0.21881E-01 -0.19881E-01 -0.17479E-01 -0.14798E-01
 -0.12002E-01 -0.92820E-02 -0.67918E-02 -0.45512E-02 -0.24580E-02 -0.44226E-03
  0.13505E-02  0.25778E-02  0.59569E-02  0.61777E-02  0.62261E-02  0.56680E-02
  0.43723E-02  0.25480E-02  0.47299E-03 -0.17534E-02 -0.42163E-02 -0.70151E-02
 -0.10105E-01 -0.13270E-01 -0.16220E-01 -0.18709E-01 -0.20547E-01 -0.21564E-01
 -0.21681E-01 -0.21088E-01 -0.20274E-01 -0.19716E-01 -0.19501E-01 -0.19338E-01
 -0.18986E-01 -0.18588E-01 -0.18495E-01 -0.18815E-01 -0.19236E-01 -0.19281E-01
 -0.18657E-01 -0.17339E-01 -0.15449E-01 -0.13143E-01 -0.10615E-01 -0.80915E-02
 -0.57554E-02 -0.36503E-02 -0.16859E-02  0.20710E-03  0.18952E-02  0.30573E-02
  0.59731E-02  0.62295E-02  0.64835E-02  0.62780E-02  0.53754E-02  0.38760E-02
  0.20250E-02 -0.27738E-04 -0.22857E-02 -0.47898E-02 -0.74763E-02 -0.10135E-01
 -0.12490E-01 -0.14297E-01 -0.15367E-01 -0.15538E-01 -0.14756E-01 -0.13255E-01
 -0.11587E-01 -0.10313E-01 -0.96270E-02 -0.93458E-02 -0.92888E-02 -0.95677E-02
 -0.10415E-01 -0.11788E-01 -0.13246E-01 -0.14238E-01 -0.14437E-01 -0.13812E-01
 -0.12490E-01 -0.10644E-01 -0.84802E-02 -0.62358E-02 -0.41027E-02 -0.21477E-02
 -0.32498E-03  0.13910E-02  0.28592E-02  0.37950E-02  0.52435E-02  0.56524E-02
  0.62444E-02  0.65412E-02  0.61985E-02  0.51942E-02  0.37206E-02  0.19722E-02
  0.42944E-04 -0.20256E-02 -0.41404E-02 -0.61086E-02 -0.76837E-02 -0.86438E-02
 -0.88080E-02 -0.80197E-02 -0.62251E-02 -0.36542E-02 -0.87995E-03  0.14194E-02
  0.28154E-02  0.32351E-02  0.27497E-02  0.13821E-02 -0.80126E-03 -0.34766E-02
 -0.60714E-02 -0.80363E-02 -0.90893E-02 -0.92234E-02 -0.85687E-02 -0.72993E-02
 -0.56227E-02 -0.37645E-02 -0.19086E-02 -0.14805E-03  0.14917E-02  0.29574E-02
  0.40804E-02  0.46189E-02  0.37006E-02  0.43085E-02  0.52734E-02  0.61206E-02
  0.64331E-02  0.60783E-02  0.51784E-02  0.39457E-02  0.25572E-02  0.11373E-02
 -0.18874E-03 -0.12491E-02 -0.18387E-02 -0.17659E-02 -0.86358E-03  0.10258E-02
  0.39821E-02  0.78244E-02  0.11981E-01  0.15616E-01  0.17952E-01  0.18539E-01
  0.17304E-01  0.14489E-01  0.10603E-01  0.63536E-02  0.24633E-02 -0.56780E-03
 -0.25574E-02 -0.35515E-02 -0.36880E-02 -0.31372E-02 -0.20972E-02 -0.77145E-03
  0.67448E-03  0.21239E-02  0.34737E-02  0.45815E-02  0.52450E-02  0.52677E-02
  0.16272E-02  0.24159E-02  0.36891E-02  0.50181E-02  0.59720E-02  0.63455E-02
  0.61907E-02  0.57080E-02  0.51187E-02  0.45997E-02  0.42930E-02  0.43471E-02
  0.49303E-02  0.62055E-02  0.83174E-02  0.11404E-01  0.15551E-01  0.20618E-01
  0.26048E-01  0.30880E-01  0.34034E-01  0.34723E-01  0.32755E-01  0.28579E-01
  0.23105E-01  0.17375E-01  0.12222E-01  0.80914E-02  0.50829E-02  0.31184E-02
  0.20657E-02  0.17634E-02  0.20208E-02  0.26527E-02  0.35107E-02  0.44645E-02
  0.53543E-02  0.59712E-02  0.60916E-02  0.55622E-02 -0.67103E-03  0.26500E-03
  0.17515E-02  0.34439E-02  0.49574E-02  0.60674E-02  0.67766E-02  0.72509E-02
  0.77046E-02  0.83164E-02  0.92213E-02  0.10552E-01  0.12460E-01  0.15094E-01
  0.18557E-01  0.22917E-01  0.28187E-01  0.34199E-01  0.40414E-01  0.45856E-01
  0.49349E-01  0.49977E-01  0.47502E-01  0.42479E-01  0.35999E-01  0.29232E-01
  0.23035E-01  0.17830E-01  0.13715E-01  0.10652E-01  0.85529E-02  0.72764E-02
  0.66334E-02  0.64372E-02  0.65392E-02  0.68013E-02  0.70430E-02  0.70351E-02
  0.65583E-02  0.54958E-02 -0.31160E-02 -0.20408E-02 -0.38824E-03  0.15944E-02
  0.36064E-02  0.54527E-02  0.71124E-02  0.87007E-02  0.10378E-01  0.12284E-01
  0.14537E-01  0.17270E-01  0.20644E-01  0.24793E-01  0.29759E-01  0.35487E-01
  0.41840E-01  0.48544E-01  0.55058E-01  0.60502E-01  0.63829E-01  0.64224E-01
  0.61491E-01  0.56167E-01  0.49276E-01  0.41904E-01  0.34856E-01  0.28576E-01
  0.23253E-01  0.18953E-01  0.15669E-01  0.13298E-01  0.11656E-01  0.10538E-01
  0.97687E-02  0.91922E-02  0.86338E-02  0.78888E-02  0.67706E-02  0.51909E-02
 -0.58276E-02 -0.45901E-02 -0.27412E-02 -0.44368E-03  0.20931E-02  0.47249E-02
  0.74194E-02  0.10228E-01  0.13238E-01  0.16542E-01  0.20254E-01  0.24520E-01
  0.29502E-01  0.35299E-01  0.41879E-01  0.49060E-01  0.56540E-01  0.63907E-01
  0.70583E-01  0.75808E-01  0.78762E-01  0.78842E-01  0.75942E-01  0.70518E-01
  0.63411E-01  0.55533E-01  0.47633E-01  0.40220E-01  0.33607E-01  0.27977E-01
  0.23399E-01  0.19818E-01  0.17075E-01  0.14956E-01  0.13243E-01  0.11747E-01
  0.10297E-01  0.87331E-02  0.69195E-02  0.47941E-02 -0.89279E-02 -0.74860E-02
 -0.53534E-02 -0.26333E-02  0.53947E-03  0.40626E-02  0.78824E-02  0.11983E-01
  0.16390E-01  0.21180E-01  0.26477E-01  0.32424E-01  0.39140E-01  0.46658E-01
  0.54882E-01  0.63553E-01  0.72262E-01  0.80466E-01  0.87518E-01  0.92715E-01
  0.95410E-01  0.95191E-01  0.92034E-01  0.86335E-01  0.78784E-01  0.70177E-01
  0.61254E-01  0.52611E-01  0.44673E-01  0.37696E-01  0.31782E-01  0.26911E-01
  0.22964E-01  0.19748E-01  0.17026E-01  0.14566E-01  0.12183E-01  0.97457E-02
  0.71692E-02  0.44217E-02 -0.12386E-01 -0.10682E-01 -0.81589E-02 -0.48793E-02
 -0.92730E-03  0.36100E-02  0.86403E-02  0.14091E-01  0.19959E-01  0.26337E-01
  0.33354E-01  0.41113E-01  0.49647E-01  0.58918E-01  0.68797E-01  0.79005E-01
  0.89065E-01  0.98318E-01  0.10602E+00  0.11146E+00  0.11407E+00  0.11357E+00
  0.11001E+00  0.10375E+00  0.95436E-01  0.85823E-01  0.75683E-01  0.65704E-01
  0.56404E-01  0.48081E-01  0.40836E-01  0.34647E-01  0.29424E-01  0.25019E-01
  0.21213E-01  0.17752E-01  0.14416E-01  0.11069E-01  0.76564E-02  0.41835E-02
 -0.15998E-01 -0.13954E-01 -0.10940E-01 -0.69817E-02 -0.21300E-02  0.35192E-02
  0.98289E-02  0.16690E-01  0.24102E-01  0.32170E-01  0.41005E-01  0.50644E-01
  0.61047E-01  0.72136E-01  0.83768E-01  0.95623E-01  0.10712E+00  0.11747E+00
  0.12582E+00  0.13149E+00  0.13399E+00  0.13314E+00  0.12906E+00  0.12214E+00
  0.11299E+00  0.10234E+00  0.90952E-01  0.79582E-01  0.68846E-01  0.59121E-01
  0.50528E-01  0.43023E-01  0.36513E-01  0.30878E-01  0.25939E-01  0.21442E-01
  0.17131E-01  0.12839E-01  0.85191E-02  0.42125E-02 -0.19487E-01 -0.17004E-01
 -0.13409E-01 -0.86844E-02 -0.28549E-02  0.39667E-02  0.11609E-01  0.19951E-01
  0.28990E-01  0.38811E-01  0.49480E-01  0.60997E-01  0.73315E-01  0.86351E-01
  0.99895E-01  0.11347E+00  0.12631E+00  0.13746E+00  0.14609E+00  0.15159E+00
  0.15366E+00  0.15228E+00  0.14765E+00  0.14022E+00  0.13051E+00  0.11914E+00
  0.10678E+00  0.94157E-01  0.81988E-01  0.70792E-01  0.60794E-01  0.51979E-01
  0.44230E-01  0.37409E-01  0.31343E-01  0.25786E-01  0.20466E-01  0.15184E-01
  0.98879E-02  0.46468E-02 -0.22612E-01 -0.19575E-01 -0.15314E-01 -0.97556E-02
 -0.28995E-02  0.51274E-02  0.14141E-01  0.24020E-01  0.34736E-01  0.46309E-01
  0.58758E-01  0.72114E-01  0.86392E-01  0.10147E+00  0.11695E+00  0.13205E+00
  0.14578E+00  0.15712E+00  0.16536E+00  0.17010E+00  0.17132E+00  0.16917E+00
  0.16400E+00  0.15627E+00  0.14645E+00  0.13495E+00  0.12222E+00  0.10884E+00
  0.95527E-01  0.82951E-01  0.71543E-01  0.61433E-01  0.52527E-01  0.44625E-01
  0.37493E-01  0.30873E-01  0.24504E-01  0.18189E-01  0.11864E-01  0.56030E-02
 -0.25189E-01 -0.21469E-01 -0.16457E-01 -0.10006E-01 -0.20873E-02  0.71579E-02
  0.17544E-01  0.28956E-01  0.41324E-01  0.54581E-01  0.68726E-01  0.83871E-01
  0.10009E+00  0.11712E+00  0.13420E+00  0.15025E+00  0.16411E+00  0.17488E+00
  0.18209E+00  0.18563E+00  0.18567E+00  0.18256E+00  0.17678E+00  0.16887E+00
  0.15926E+00  0.14822E+00  0.13589E+00  0.12256E+00  0.10876E+00  0.95213E-01
  0.82578E-01  0.71261E-01  0.61294E-01  0.52427E-01  0.44317E-01  0.36668E-01
  0.29256E-01  0.21906E-01  0.14530E-01  0.71836E-02 -0.27063E-01 -0.22513E-01
 -0.16670E-01 -0.92723E-02 -0.25276E-03  0.10206E-01  0.21895E-01  0.34716E-01
  0.48584E-01  0.63384E-01  0.79119E-01  0.95962E-01  0.11395E+00  0.13254E+00
  0.15059E+00  0.16675E+00  0.17994E+00  0.18956E+00  0.19543E+00  0.19762E+00
  0.19641E+00  0.19223E+00  0.18571E+00  0.17752E+00  0.16819E+00  0.15791E+00