written on  1Apr2018 at 07:07:16
          8
        729
   1    1    1    1    1    1    1    1    1    1    1    1    1    1    1
   1    1    1    1    1    1    1    1    1    1    1    1    1    1    1
   1    1    1    1    1    1    1    1    1    1    1    1    1    1    1
   1    1    1    1    1    1    1    1    1    1    1    1    1    1    1
   1    1    1    1    1    1    1    1    1    1    1    1    1    1    1
   1    1    1    1    1    1    1    1    1    1    1    1    1    1    1
   1    1    1    1    1    1    1    1    1    1    1    1    1    1    1
   1    1    1    1    1    1    1    1    1    1    1    1    1    1    1
   1    1    1    1    1    1    1    1    1    1    1    1    1    1    1
   1    1    1    1    1    1    1    1    1    1    1    1    1    1    1
   1    1    1    1    1    1    1    1    1    1    1    1    1    1    1
   1    1    1    1    1    1    1    1    1    1    1    1    1    1    1
   1    1    1    1    1    1    1    1    1    1    1    1    1    1    1
   1    1    1    1    1    1    1    1    1    1    1    1    1    1    1
   1    1    1    1    1    1    1    1    1    1    1    1    1    1    1
   1    1    1    1    1    1    1    1    1    1    1    1    1    1    1
   1    1    1    1    1    1    1    1    1    1    1    1    1    1    1
   1    1    1    1    1    1    1    1    1    1    1    1    1    1    1
   1    1    1    1    1    1    1    1    1    1    1    1    1    1    1
   1    1    1    1    1    1    1    1    1    1    1    1    1    1    1
   1    1    1    1    1    1    1    1    1    1    1    1    1    1    1
   1    1    1    1    1    1    1    1    1    1    1    1    1    1    1
   1    1    1    1    1    1    1    1    1    1    1    1    1    1    1
   1    1    1    1    1    1    1    1    1    1    1    1    1    1    1
   1    1    1    1    1    1    1    1    1    1    1    1    1    1    1
   1    1    1    1    1    1    1    1    1    1    1    1    1    1    1
   1    1    1    1    1    1    1    1    1    1    1    1    1    1    1
   1    1    1    1    1    1    1    1    1    1    1    1    1    1    1
   1    1    1    1    1    1    1    1    1    1    1    1    1    1    1
   1    1    1    1    1    1    1    1    1    1    1    1    1    1    1
   1    1    1    1    1    1    1    1    1    1    1    1    1    1    1
   1    1    1    1    1    1    1    1    1    1    1    1    1    1    1
   1    1    1    1    1    1    1    1    1    1    1    1    1    1    1
   1    1    1    1    1    1    1    1    1    1    1    1    1    1    1
   1    1    1    1    1    1    1    1    1    1    1    1    1    1    1
   1    1    1    1    1    1    1    1    1    1    1    1    1    1    1
   1    1    1    1    1    1    1    1    1    1    1    1    1    1    1
   1    1    1    1    1    1    1    1    1    1    1    1    1    1    1
   1    1    1    1    1    1    1    1    1    1    1    1    1    1    1
   1    1    1    1    1    1    1    1    1    1    1    1    1    1    1
   1    1    1    1    1    1    1    1    1    1    1    1    1    1    1
   1    1    1    1    1    1    1    1    1    1    1    1    1    1    1
   1    1    1    1    1    1    1    1    1    1    1    1    1    1    1
   1    1    1    1    1    1    1    1    1    1    1    1    1    1    1
   1    1    1    1    1    1    1    1    1    1    1    1    1    1    1
   1    1    1    1    1    1    1    1    1    1    1    1    1    1    1
   1    1    1    1    1    1    1    1    1    1    1    1    1    1    1
   1    1    1    1    1    1    1    1    1    1    1    1    1    1    1
   1    1    1    1    1    1    1    1    1
-4	-4	-4	1	1	-0.001769	0.000000
-4	-4	-4	2	1	0.000166	0.000000
-4	-4	-4	3	1	0.000171	-0.000030
-4	-4	-4	4	1	0.000169	0.000030
-4	-4	-4	5	1	0.000000	0.000000
-4	-4	-4	6	1	0.000030	0.000030
-4	-4	-4	7	1	-0.000030	0.000000
-4	-4	-4	8	1	0.000000	-0.000030
-4	-4	-4	1	2	-0.000166	0.000000
-4	-4	-4	2	2	0.000418	0.000000
-4	-4	-4	3	2	-0.000070	0.000010
-4	-4	-4	4	2	-0.000069	-0.000010
-4	-4	-4	5	2	0.000030	0.000030
-4	-4	-4	6	2	0.000000	0.000000
-4	-4	-4	7	2	0.000014	0.000010
-4	-4	-4	8	2	0.000010	0.000014
-4	-4	-4	1	3	-0.000171	-0.000030
-4	-4	-4	2	3	-0.000070	-0.000010
-4	-4	-4	3	3	0.000414	0.000000
-4	-4	-4	4	3	-0.000071	-0.000014
-4	-4	-4	5	3	-0.000030	0.000000
-4	-4	-4	6	3	-0.000014	-0.000010
-4	-4	-4	7	3	0.000000	0.000000
-4	-4	-4	8	3	-0.000010	0.000010
-4	-4	-4	1	4	-0.000169	0.000030
-4	-4	-4	2	4	-0.000069	0.000010
-4	-4	-4	3	4	-0.000071	0.000014
-4	-4	-4	4	4	0.000415	0.000000
-4	-4	-4	5	4	0.000000	-0.000030
-4	-4	-4	6	4	-0.000010	-0.000014
-4	-4	-4	7	4	0.000010	-0.000010
-4	-4	-4	8	4	0.000000	0.000000
-4	-4	-4	1	5	0.000000	0.000000
-4	-4	-4	2	5	-0.000030	0.000030
-4	-4	-4	3	5	0.000030	0.000000
-4	-4	-4	4	5	0.000000	-0.000030
-4	-4	-4	5	5	-0.001769	0.000000
-4	-4	-4	6	5	0.000166	0.000000
-4	-4	-4	7	5	0.000171	0.000030
-4	-4	-4	8	5	0.000169	-0.000030
-4	-4	-4	1	6	-0.000030	0.000030
-4	-4	-4	2	6	0.000000	0.000000
-4	-4	-4	3	6	-0.000014	0.000010
-4	-4	-4	4	6	-0.000010	0.000014
-4	-4	-4	5	6	-0.000166	0.000000
-4	-4	-4	6	6	0.000418	0.000000
-4	-4	-4	7	6	-0.000070	-0.000010
-4	-4	-4	8	6	-0.000069	0.000010
-4	-4	-4	1	7	0.000030	0.000000
-4	-4	-4	2	7	0.000014	-0.000010
-4	-4	-4	3	7	0.000000	0.000000
-4	-4	-4	4	7	0.000010	0.000010
-4	-4	-4	5	7	-0.000171	0.000030
-4	-4	-4	6	7	-0.000070	0.000010
-4	-4	-4	7	7	0.000414	0.000000
-4	-4	-4	8	7	-0.000071	0.000014
-4	-4	-4	1	8	0.000000	-0.000030
-4	-4	-4	2	8	0.000010	-0.000014
-4	-4	-4	3	8	-0.000010	-0.000010
-4	-4	-4	4	8	0.000000	0.000000
-4	-4	-4	5	8	-0.000169	-0.000030
-4	-4	-4	6	8	-0.000069	-0.000010
-4	-4	-4	7	8	-0.000071	-0.000014
-4	-4	-4	8	8	0.000415	0.000000
-4	-4	-3	1	1	-0.000876	0.000000
-4	-4	-3	2	1	0.000611	0.000000
-4	-4	-3	3	1	-0.000010	-0.000001
-4	-4	-3	4	1	-0.000010	0.000001
-4	-4	-3	5	1	0.000000	0.000000
-4	-4	-3	6	1	0.000000	0.000000
-4	-4	-3	7	1	-0.000111	-0.000002
-4	-4	-3	8	1	-0.000002	-0.000111
-4	-4	-3	1	2	-0.000611	0.000000
-4	-4	-3	2	2	0.000332	0.000000
-4	-4	-3	3	2	-0.000120	0.000039
-4	-4	-3	4	2	-0.000119	-0.000039
-4	-4	-3	5	2	0.000000	0.000000
-4	-4	-3	6	2	0.000000	0.000000
-4	-4	-3	7	2	-0.000032	0.000015
-4	-4	-3	8	2	0.000015	-0.000032
-4	-4	-3	1	3	0.000010	-0.000001
-4	-4	-3	2	3	-0.000120	-0.000039
-4	-4	-3	3	3	0.000295	0.000000
-4	-4	-3	4	3	-0.000082	0.000034
-4	-4	-3	5	3	-0.000111	-0.000002
-4	-4	-3	6	3	0.000032	-0.000015
-4	-4	-3	7	3	0.000000	0.000000
-4	-4	-3	8	3	-0.000038	0.000039
-4	-4	-3	1	4	0.000010	0.000001
-4	-4	-3	2	4	-0.000119	0.000039
-4	-4	-3	3	4	-0.000082	-0.000034
-4	-4	-3	4	4	0.000296	0.000000
-4	-4	-3	5	4	-0.000002	-0.000111
-4	-4	-3	6	4	-0.000015	0.000032
-4	-4	-3	7	4	0.000038	-0.000039
-4	-4	-3	8	4	0.000000	0.000000
-4	-4	-3	1	5	0.000000	0.000000
-4	-4	-3	2	5	0.000000	0.000000
-4	-4	-3	3	5	0.000111	-0.000002
-4	-4	-3	4	5	0.000002	-0.000111
-4	-4	-3	5	5	-0.000876	0.000000
-4	-4	-3	6	5	0.000611	0.000000
-4	-4	-3	7	5	-0.000010	0.000001
-4	-4	-3	8	5	-0.000010	-0.000001
-4	-4	-3	1	6	0.000000	0.000000
-4	-4	-3	2	6	0.000000	0.000000
-4	-4	-3	3	6	0.000032	0.000015
-4	-4	-3	4	6	-0.000015	-0.000032
-4	-4	-3	5	6	-0.000611	0.000000
-4	-4	-3	6	6	0.000332	0.000000
-4	-4	-3	7	6	-0.000120	-0.000039
-4	-4	-3	8	6	-0.000119	0.000039
-4	-4	-3	1	7	0.000111	-0.000002
-4	-4	-3	2	7	-0.000032	-0.000015
-4	-4	-3	3	7	0.000000	0.000000
-4	-4	-3	4	7	0.000038	0.000039
-4	-4	-3	5	7	0.000010	0.000001
-4	-4	-3	6	7	-0.000120	0.000039
-4	-4	-3	7	7	0.000295	0.000000
-4	-4	-3	8	7	-0.000082	-0.000034
-4	-4	-3	1	8	0.000002	-0.000111
-4	-4	-3	2	8	0.000015	0.000032
-4	-4	-3	3	8	-0.000038	-0.000039
-4	-4	-3	4	8	0.000000	0.000000
-4	-4	-3	5	8	0.000010	-0.000001
-4	-4	-3	6	8	-0.000119	-0.000039
-4	-4	-3	7	8	-0.000082	0.000034
-4	-4	-3	8	8	0.000296	0.000000
-4	-4	-2	1	1	-0.000510	0.000000
-4	-4	-2	2	1	0.001087	0.000000
-4	-4	-2	3	1	0.000047	0.000048
-4	-4	-2	4	1	0.000046	-0.000048
-4	-4	-2	5	1	0.000000	0.000000
-4	-4	-2	6	1	-0.000007	-0.000007
-4	-4	-2	7	1	-0.000230	0.000009
-4	-4	-2	8	1	0.000010	-0.000230
-4	-4	-2	1	2	-0.001087	0.000000
-4	-4	-2	2	2	0.000069	0.000000
-4	-4	-2	3	2	0.000006	0.000017
-4	-4	-2	4	2	0.000007	-0.000017
-4	-4	-2	5	2	-0.000007	-0.000007
-4	-4	-2	6	2	0.000000	0.000000
-4	-4	-2	7	2	-0.000041	-0.000005
-4	-4	-2	8	2	-0.000006	-0.000041
-4	-4	-2	1	3	-0.000047	0.000048
-4	-4	-2	2	3	0.000006	-0.000017
-4	-4	-2	3	3	0.000256	0.000000
-4	-4	-2	4	3	-0.000006	0.000145
-4	-4	-2	5	3	-0.000230	0.000009
-4	-4	-2	6	3	0.000041	0.000005
-4	-4	-2	7	3	0.000000	0.000000
-4	-4	-2	8	3	-0.000058	0.000059
-4	-4	-2	1	4	-0.000046	-0.000048
-4	-4	-2	2	4	0.000007	0.000017
-4	-4	-2	3	4	-0.000006	-0.000145
-4	-4	-2	4	4	0.000256	0.000000
-4	-4	-2	5	4	0.000010	-0.000230
-4	-4	-2	6	4	0.000006	0.000041
-4	-4	-2	7	4	0.000058	-0.000059
-4	-4	-2	8	4	0.000000	0.000000
-4	-4	-2	1	5	0.000000	0.000000
-4	-4	-2	2	5	0.000007	-0.000007
-4	-4	-2	3	5	0.000230	0.000009
-4	-4	-2	4	5	-0.000010	-0.000230
-4	-4	-2	5	5	-0.000510	0.000000
-4	-4	-2	6	5	0.001087	0.000000
-4	-4	-2	7	5	0.000047	-0.000048
-4	-4	-2	8	5	0.000046	0.000048
-4	-4	-2	1	6	0.000007	-0.000007
-4	-4	-2	2	6	0.000000	0.000000
-4	-4	-2	3	6	0.000041	-0.000005
-4	-4	-2	4	6	0.000006	-0.000041
-4	-4	-2	5	6	-0.001087	0.000000
-4	-4	-2	6	6	0.000069	0.000000
-4	-4	-2	7	6	0.000006	-0.000017
-4	-4	-2	8	6	0.000007	0.000017
-4	-4	-2	1	7	0.000230	0.000009
-4	-4	-2	2	7	-0.000041	0.000005
-4	-4	-2	3	7	0.000000	0.000000
-4	-4	-2	4	7	0.000058	0.000059
-4	-4	-2	5	7	-0.000047	-0.000048
-4	-4	-2	6	7	0.000006	0.000017
-4	-4	-2	7	7	0.000256	0.000000
-4	-4	-2	8	7	-0.000006	-0.000145
-4	-4	-2	1	8	-0.000010	-0.000230
-4	-4	-2	2	8	-0.000006	0.000041
-4	-4	-2	3	8	-0.000058	-0.000059
-4	-4	-2	4	8	0.000000	0.000000
-4	-4	-2	5	8	-0.000046	0.000048
-4	-4	-2	6	8	0.000007	-0.000017
-4	-4	-2	7	8	-0.000006	0.000145
-4	-4	-2	8	8	0.000256	0.000000
-4	-4	-1	1	1	-0.001515	0.000000
-4	-4	-1	2	1	0.001062	0.000000
-4	-4	-1	3	1	0.000441	-0.000052
-4	-4	-1	4	1	0.000437	0.000053
-4	-4	-1	5	1	0.000000	0.000000
-4	-4	-1	6	1	0.000016	0.000016
-4	-4	-1	7	1	-0.000217	0.000004
-4	-4	-1	8	1	0.000005	-0.000217
-4	-4	-1	1	2	-0.001062	0.000000
-4	-4	-1	2	2	-0.000398	0.000000
-4	-4	-1	3	2	0.000117	-0.000020
-4	-4	-1	4	2	0.000116	0.000021
-4	-4	-1	5	2	0.000016	0.000016
-4	-4	-1	6	2	0.000000	0.000000
-4	-4	-1	7	2	-0.000025	-0.000042
-4	-4	-1	8	2	-0.000042	-0.000024
-4	-4	-1	1	3	-0.000441	-0.000052
-4	-4	-1	2	3	0.000117	0.000020
-4	-4	-1	3	3	0.001202	0.000000
-4	-4	-1	4	3	0.000084	0.000274
-4	-4	-1	5	3	-0.000217	0.000004
-4	-4	-1	6	3	0.000025	0.000042
-4	-4	-1	7	3	0.000000	0.000000
-4	-4	-1	8	3	-0.000046	0.000047
-4	-4	-1	1	4	-0.000437	0.000053
-4	-4	-1	2	4	0.000116	-0.000021
-4	-4	-1	3	4	0.000084	-0.000274
-4	-4	-1	4	4	0.001200	0.000000
-4	-4	-1	5	4	0.000005	-0.000217
-4	-4	-1	6	4	0.000042	0.000024
-4	-4	-1	7	4	0.000046	-0.000047
-4	-4	-1	8	4	0.000000	0.000000
-4	-4	-1	1	5	0.000000	0.000000
-4	-4	-1	2	5	-0.000016	0.000016
-4	-4	-1	3	5	0.000217	0.000004
-4	-4	-1	4	5	-0.000005	-0.000217
-4	-4	-1	5	5	-0.001515	0.000000
-4	-4	-1	6	5	0.001062	0.000000
-4	-4	-1	7	5	0.000441	0.000052
-4	-4	-1	8	5	0.000437	-0.000053
-4	-4	-1	1	6	-0.000016	0.000016
-4	-4	-1	2	6	0.000000	0.000000
-4	-4	-1	3	6	0.000025	-0.000042
-4	-4	-1	4	6	0.000042	-0.000024
-4	-4	-1	5	6	-0.001062	0.000000
-4	-4	-1	6	6	-0.000398	0.000000
-4	-4	-1	7	6	0.000117	0.000020
-4	-4	-1	8	6	0.000116	-0.000021
-4	-4	-1	1	7	0.000217	0.000004
-4	-4	-1	2	7	-0.000025	0.000042
-4	-4	-1	3	7	0.000000	0.000000
-4	-4	-1	4	7	0.000046	0.000047
-4	-4	-1	5	7	-0.000441	0.000052
-4	-4	-1	6	7	0.000117	-0.000020
-4	-4	-1	7	7	0.001202	0.000000
-4	-4	-1	8	7	0.000084	-0.000274
-4	-4	-1	1	8	-0.000005	-0.000217
-4	-4	-1	2	8	-0.000042	0.000024
-4	-4	-1	3	8	-0.000046	-0.000047
-4	-4	-1	4	8	0.000000	0.000000
-4	-4	-1	5	8	-0.000437	-0.000053
-4	-4	-1	6	8	0.000116	0.000021
-4	-4	-1	7	8	0.000084	0.000274
-4	-4	-1	8	8	0.001200	0.000000
-4	-4	0	1	1	-0.002496	0.000000
-4	-4	0	2	1	0.000015	0.000000
-4	-4	0	3	1	0.000648	-0.000091
-4	-4	0	4	1	0.000644	0.000092
-4	-4	0	5	1	0.000000	0.000000
-4	-4	0	6	1	0.000024	0.000024
-4	-4	0	7	1	0.000012	-0.000007
-4	-4	0	8	1	-0.000007	0.000013
-4	-4	0	1	2	-0.000015	0.000000
-4	-4	0	2	2	-0.000686	0.000000
-4	-4	0	3	2	0.000020	0.000002
-4	-4	0	4	2	0.000020	-0.000002
-4	-4	0	5	2	0.000024	0.000024
-4	-4	0	6	2	0.000000	0.000000
-4	-4	0	7	2	-0.000018	-0.000045
-4	-4	0	8	2	-0.000046	-0.000017
-4	-4	0	1	3	-0.000648	-0.000091
-4	-4	0	2	3	0.000020	-0.000002
-4	-4	0	3	3	0.001497	0.000000
-4	-4	0	4	3	0.000181	0.000261
-4	-4	0	5	3	0.000012	-0.000007
-4	-4	0	6	3	0.000018	0.000045
-4	-4	0	7	3	0.000000	0.000000
-4	-4	0	8	3	-0.000008	0.000008
-4	-4	0	1	4	-0.000644	0.000092
-4	-4	0	2	4	0.000020	0.000002
-4	-4	0	3	4	0.000181	-0.000261
-4	-4	0	4	4	0.001494	0.000000
-4	-4	0	5	4	-0.000007	0.000013
-4	-4	0	6	4	0.000046	0.000017
-4	-4	0	7	4	0.000008	-0.000008
-4	-4	0	8	4	0.000000	0.000000
-4	-4	0	1	5	0.000000	0.000000
-4	-4	0	2	5	-0.000024	0.000024
-4	-4	0	3	5	-0.000012	-0.000007
-4	-4	0	4	5	0.000007	0.000013
-4	-4	0	5	5	-0.002496	0.000000
-4	-4	0	6	5	0.000015	0.000000
-4	-4	0	7	5	0.000648	0.000091
-4	-4	0	8	5	0.000644	-0.000092
-4	-4	0	1	6	-0.000024	0.000024
-4	-4	0	2	6	0.000000	0.000000
-4	-4	0	3	6	0.000018	-0.000045
-4	-4	0	4	6	0.000046	-0.000017
-4	-4	0	5	6	-0.000015	0.000000
-4	-4	0	6	6	-0.000686	0.000000
-4	-4	0	7	6	0.000020	-0.000002
-4	-4	0	8	6	0.000020	0.000002
-4	-4	0	1	7	-0.000012	-0.000007
-4	-4	0	2	7	-0.000018	0.000045
-4	-4	0	3	7	0.000000	0.000000
-4	-4	0	4	7	0.000008	0.000008
-4	-4	0	5	7	-0.000648	0.000091
-4	-4	0	6	7	0.000020	0.000002
-4	-4	0	7	7	0.001497	0.000000
-4	-4	0	8	7	0.000181	-0.000261
-4	-4	0	1	8	0.000007	0.000013
-4	-4	0	2	8	-0.000046	0.000017
-4	-4	0	3	8	-0.000008	-0.000008
-4	-4	0	4	8	0.000000	0.000000
-4	-4	0	5	8	-0.000644	-0.000092
-4	-4	0	6	8	0.000020	-0.000002
-4	-4	0	7	8	0.000181	0.000261
-4	-4	0	8	8	0.001494	0.000000
-4	-4	1	1	1	-0.001575	0.000000
-4	-4	1	2	1	-0.001046	0.000000
-4	-4	1	3	1	0.000380	-0.000038
-4	-4	1	4	1	0.000378	0.000038
-4	-4	1	5	1	0.000000	0.000000
-4	-4	1	6	1	0.000006	0.000006
-4	-4	1	7	1	0.000221	-0.000006
-4	-4	1	8	1	-0.000006	0.000221
-4	-4	1	1	2	0.001046	0.000000
-4	-4	1	2	2	-0.000431	0.000000
-4	-4	1	3	2	-0.000056	0.000014
-4	-4	1	4	2	-0.000056	-0.000014
-4	-4	1	5	2	0.000006	0.000006
-4	-4	1	6	2	0.000000	0.000000
-4	-4	1	7	2	-0.000017	-0.000047
-4	-4	1	8	2	-0.000047	-0.000016
-4	-4	1	1	3	-0.000380	-0.000038
-4	-4	1	2	3	-0.000056	-0.000014
-4	-4	1	3	3	0.001094	0.000000
-4	-4	1	4	3	0.000236	0.000251
-4	-4	1	5	3	0.000221	-0.000006
-4	-4	1	6	3	0.000017	0.000047
-4	-4	1	7	3	0.000000	0.000000
-4	-4	1	8	3	0.000019	-0.000019
-4	-4	1	1	4	-0.000378	0.000038
-4	-4	1	2	4	-0.000056	0.000014
-4	-4	1	3	4	0.000236	-0.000251
-4	-4	1	4	4	0.001088	0.000000
-4	-4	1	5	4	-0.000006	0.000221
-4	-4	1	6	4	0.000047	0.000016
-4	-4	1	7	4	-0.000019	0.000019
-4	-4	1	8	4	0.000000	0.000000
-4	-4	1	1	5	0.000000	0.000000
-4	-4	1	2	5	-0.000006	0.000006
-4	-4	1	3	5	-0.000221	-0.000006
-4	-4	1	4	5	0.000006	0.000221
-4	-4	1	5	5	-0.001575	0.000000
-4	-4	1	6	5	-0.001046	0.000000
-4	-4	1	7	5	0.000380	0.000038
-4	-4	1	8	5	0.000378	-0.000038
-4	-4	1	1	6	-0.000006	0.000006
-4	-4	1	2	6	0.000000	0.000000
-4	-4	1	3	6	0.000017	-0.000047
-4	-4	1	4	6	0.000047	-0.000016
-4	-4	1	5	6	0.001046	0.000000
-4	-4	1	6	6	-0.000431	0.000000
-4	-4	1	7	6	-0.000056	-0.000014
-4	-4	1	8	6	-0.000056	0.000014
-4	-4	1	1	7	-0.000221	-0.000006
-4	-4	1	2	7	-0.000017	0.000047
-4	-4	1	3	7	0.000000	0.000000
-4	-4	1	4	7	-0.000019	-0.000019
-4	-4	1	5	7	-0.000380	0.000038
-4	-4	1	6	7	-0.000056	0.000014
-4	-4	1	7	7	0.001094	0.000000
-4	-4	1	8	7	0.000236	-0.000251
-4	-4	1	1	8	0.000006	0.000221
-4	-4	1	2	8	-0.000047	0.000016
-4	-4	1	3	8	0.000019	0.000019
-4	-4	1	4	8	0.000000	0.000000
-4	-4	1	5	8	-0.000378	-0.000038
-4	-4	1	6	8	-0.000056	-0.000014
-4	-4	1	7	8	0.000236	0.000251
-4	-4	1	8	8	0.001088	0.000000
-4	-4	2	1	1	-0.000551	0.000000
-4	-4	2	2	1	-0.001104	0.000000
-4	-4	2	3	1	0.000040	0.000064
-4	-4	2	4	1	0.000040	-0.000065
-4	-4	2	5	1	0.000000	0.000000
-4	-4	2	6	1	-0.000015	-0.000014
-4	-4	2	7	1	0.000232	-0.000009
-4	-4	2	8	1	-0.000009	0.000232
-4	-4	2	1	2	0.001104	0.000000
-4	-4	2	2	2	0.000021	0.000000
-4	-4	2	3	2	0.000014	-0.000019
-4	-4	2	4	2	0.000013	0.000019
-4	-4	2	5	2	-0.000015	-0.000014
-4	-4	2	6	2	0.000000	0.000000
-4	-4	2	7	2	-0.000023	-0.000013
-4	-4	2	8	2	-0.000013	-0.000023
-4	-4	2	1	3	-0.000040	0.000064
-4	-4	2	2	3	0.000014	0.000019
-4	-4	2	3	3	0.000253	0.000000
-4	-4	2	4	3	-0.000044	0.000159
-4	-4	2	5	3	0.000232	-0.000009
-4	-4	2	6	3	0.000023	0.000013
-4	-4	2	7	3	0.000000	0.000000
-4	-4	2	8	3	0.000053	-0.000054
-4	-4	2	1	4	-0.000040	-0.000065
-4	-4	2	2	4	0.000013	-0.000019
-4	-4	2	3	4	-0.000044	-0.000159
-4	-4	2	4	4	0.000254	0.000000
-4	-4	2	5	4	-0.000009	0.000232
-4	-4	2	6	4	0.000013	0.000023
-4	-4	2	7	4	-0.000053	0.000054
-4	-4	2	8	4	0.000000	0.000000
-4	-4	2	1	5	0.000000	0.000000
-4	-4	2	2	5	0.000015	-0.000014
-4	-4	2	3	5	-0.000232	-0.000009
-4	-4	2	4	5	0.000009	0.000232
-4	-4	2	5	5	-0.000551	0.000000
-4	-4	2	6	5	-0.001104	0.000000
-4	-4	2	7	5	0.000040	-0.000064
-4	-4	2	8	5	0.000040	0.000065
-4	-4	2	1	6	0.000015	-0.000014
-4	-4	2	2	6	0.000000	0.000000
-4	-4	2	3	6	0.000023	-0.000013
-4	-4	2	4	6	0.000013	-0.000023
-4	-4	2	5	6	0.001104	0.000000
-4	-4	2	6	6	0.000021	0.000000
-4	-4	2	7	6	0.000014	0.000019
-4	-4	2	8	6	0.000013	-0.000019
-4	-4	2	1	7	-0.000232	-0.000009
-4	-4	2	2	7	-0.000023	0.000013
-4	-4	2	3	7	0.000000	0.000000
-4	-4	2	4	7	-0.000053	-0.000054
-4	-4	2	5	7	-0.000040	-0.000064
-4	-4	2	6	7	0.000014	-0.000019
-4	-4	2	7	7	0.000253	0.000000
-4	-4	2	8	7	-0.000044	-0.000159
-4	-4	2	1	8	0.000009	0.000232
-4	-4	2	2	8	-0.000013	0.000023
-4	-4	2	3	8	0.000053	0.000054
-4	-4	2	4	8	0.000000	0.000000
-4	-4	2	5	8	-0.000040	0.000065
-4	-4	2	6	8	0.000013	0.000019
-4	-4	2	7	8	-0.000044	0.000159
-4	-4	2	8	8	0.000254	0.000000
-4	-4	3	1	1	-0.000922	0.000000
-4	-4	3	2	1	-0.000667	0.000000
-4	-4	3	3	1	0.000008	0.000024
-4	-4	3	4	1	0.000008	-0.000024
-4	-4	3	5	1	0.000000	0.000000
-4	-4	3	6	1	0.000000	0.000000
-4	-4	3	7	1	0.000120	0.000002
-4	-4	3	8	1	0.000002	0.000120
-4	-4	3	1	2	0.000667	0.000000
-4	-4	3	2	2	0.000299	0.000000
-4	-4	3	3	2	0.000109	-0.000038
-4	-4	3	4	2	0.000108	0.000039
-4	-4	3	5	2	0.000000	0.000000
-4	-4	3	6	2	0.000000	0.000000
-4	-4	3	7	2	-0.000018	0.000014
-4	-4	3	8	2	0.000014	-0.000018
-4	-4	3	1	3	-0.000008	0.000024
-4	-4	3	2	3	0.000109	0.000038
-4	-4	3	3	3	0.000226	0.000000
-4	-4	3	4	3	-0.000059	0.000038
-4	-4	3	5	3	0.000120	0.000002
-4	-4	3	6	3	0.000018	-0.000014
-4	-4	3	7	3	0.000000	0.000000
-4	-4	3	8	3	0.000052	-0.000053
-4	-4	3	1	4	-0.000008	-0.000024
-4	-4	3	2	4	0.000108	-0.000039
-4	-4	3	3	4	-0.000059	-0.000038
-4	-4	3	4	4	0.000227	0.000000
-4	-4	3	5	4	0.000002	0.000120
-4	-4	3	6	4	-0.000014	0.000018
-4	-4	3	7	4	-0.000052	0.000053
-4	-4	3	8	4	0.000000	0.000000
-4	-4	3	1	5	0.000000	0.000000
-4	-4	3	2	5	0.000000	0.000000
-4	-4	3	3	5	-0.000120	0.000002
-4	-4	3	4	5	-0.000002	0.000120
-4	-4	3	5	5	-0.000922	0.000000
-4	-4	3	6	5	-0.000667	0.000000
-4	-4	3	7	5	0.000008	-0.000024
-4	-4	3	8	5	0.000008	0.000024
-4	-4	3	1	6	0.000000	0.000000
-4	-4	3	2	6	0.000000	0.000000
-4	-4	3	3	6	0.000018	0.000014
-4	-4	3	4	6	-0.000014	-0.000018
-4	-4	3	5	6	0.000667	0.000000
-4	-4	3	6	6	0.000299	0.000000
-4	-4	3	7	6	0.000109	0.000038
-4	-4	3	8	6	0.000108	-0.000039
-4	-4	3	1	7	-0.000120	0.000002
-4	-4	3	2	7	-0.000018	-0.000014
-4	-4	3	3	7	0.000000	0.000000
-4	-4	3	4	7	-0.000052	-0.000053
-4	-4	3	5	7	-0.000008	-0.000024
-4	-4	3	6	7	0.000109	-0.000038
-4	-4	3	7	7	0.000226	0.000000
-4	-4	3	8	7	-0.000059	-0.000038
-4	-4	3	1	8	-0.000002	0.000120
-4	-4	3	2	8	0.000014	0.000018
-4	-4	3	3	8	0.000052	0.000053
-4	-4	3	4	8	0.000000	0.000000
-4	-4	3	5	8	-0.000008	0.000024
-4	-4	3	6	8	0.000108	0.000039
-4	-4	3	7	8	-0.000059	0.000038
-4	-4	3	8	8	0.000227	0.000000
-4	-4	4	1	1	-0.001792	0.000000
-4	-4	4	2	1	-0.000260	0.000000
-4	-4	4	3	1	0.000229	-0.000022
-4	-4	4	4	1	0.000226	0.000022
-4	-4	4	5	1	0.000000	0.000000
-4	-4	4	6	1	0.000033	0.000033
-4	-4	4	7	1	0.000021	0.000007
-4	-4	4	8	1	0.000007	0.000021
-4	-4	4	1	2	0.000260	0.000000
-4	-4	4	2	2	0.000411	0.000000
-4	-4	4	3	2	0.000009	-0.000013
-4	-4	4	4	2	0.000008	0.000013
-4	-4	4	5	2	0.000033	0.000033
-4	-4	4	6	2	0.000000	0.000000
-4	-4	4	7	2	0.000017	0.000011
-4	-4	4	8	2	0.000011	0.000016
-4	-4	4	1	3	-0.000229	-0.000022
-4	-4	4	2	3	0.000009	0.000013
-4	-4	4	3	3	0.000362	0.000000
-4	-4	4	4	3	-0.000028	-0.000025
-4	-4	4	5	3	0.000021	0.000007
-4	-4	4	6	3	-0.000017	-0.000011
-4	-4	4	7	3	0.000000	0.000000
-4	-4	4	8	3	0.000018	-0.000019
-4	-4	4	1	4	-0.000226	0.000022
-4	-4	4	2	4	0.000008	-0.000013
-4	-4	4	3	4	-0.000028	0.000025
-4	-4	4	4	4	0.000362	0.000000
-4	-4	4	5	4	0.000007	0.000021
-4	-4	4	6	4	-0.000011	-0.000016
-4	-4	4	7	4	-0.000018	0.000019
-4	-4	4	8	4	0.000000	0.000000
-4	-4	4	1	5	0.000000	0.000000
-4	-4	4	2	5	-0.000033	0.000033
-4	-4	4	3	5	-0.000021	0.000007
-4	-4	4	4	5	-0.000007	0.000021
-4	-4	4	5	5	-0.001792	0.000000
-4	-4	4	6	5	-0.000260	0.000000
-4	-4	4	7	5	0.000229	0.000022
-4	-4	4	8	5	0.000226	-0.000022
-4	-4	4	1	6	-0.000033	0.000033
-4	-4	4	2	6	0.000000	0.000000
-4	-4	4	3	6	-0.000017	0.000011
-4	-4	4	4	6	-0.000011	0.000016
-4	-4	4	5	6	0.000260	0.000000
-4	-4	4	6	6	0.000411	0.000000
-4	-4	4	7	6	0.000009	0.000013
-4	-4	4	8	6	0.000008	-0.000013
-4	-4	4	1	7	-0.000021	0.000007
-4	-4	4	2	7	0.000017	-0.000011
-4	-4	4	3	7	0.000000	0.000000
-4	-4	4	4	7	-0.000018	-0.000019
-4	-4	4	5	7	-0.000229	0.000022
-4	-4	4	6	7	0.000009	-0.000013
-4	-4	4	7	7	0.000362	0.000000
-4	-4	4	8	7	-0.000028	0.000025
-4	-4	4	1	8	-0.000007	0.000021
-4	-4	4	2	8	0.000011	-0.000016
-4	-4	4	3	8	0.000018	0.000019
-4	-4	4	4	8	0.000000	0.000000
-4	-4	4	5	8	-0.000226	-0.000022
-4	-4	4	6	8	0.000008	0.000013
-4	-4	4	7	8	-0.000028	-0.000025
-4	-4	4	8	8	0.000362	0.000000
-4	-3	-4	1	1	-0.000877	0.000000
-4	-3	-4	2	1	-0.000017	-0.000002
-4	-3	-4	3	1	-0.000009	-0.000111
-4	-3	-4	4	1	0.000611	0.000000
-4	-3	-4	5	1	0.000000	0.000000
-4	-3	-4	6	1	0.000001	0.000111
-4	-3	-4	7	1	0.000001	0.000002
-4	-3	-4	8	1	0.000000	0.000001
-4	-3	-4	1	2	0.000017	-0.000002
-4	-3	-4	2	2	0.000301	0.000000
-4	-3	-4	3	2	-0.000081	0.000038
-4	-3	-4	4	2	-0.000123	-0.000015
-4	-3	-4	5	2	0.000001	0.000111
-4	-3	-4	6	2	0.000000	0.000000
-4	-3	-4	7	2	-0.000035	0.000039
-4	-3	-4	8	2	0.000039	-0.000032
-4	-3	-4	1	3	0.000009	-0.000111
-4	-3	-4	2	3	-0.000081	-0.000038
-4	-3	-4	3	3	0.000295	0.000000
-4	-3	-4	4	3	-0.000121	0.000031
-4	-3	-4	5	3	0.000001	0.000002
-4	-3	-4	6	3	0.000035	-0.000039
-4	-3	-4	7	3	0.000000	0.000000
-4	-3	-4	8	3	-0.000039	0.000015
-4	-3	-4	1	4	-0.000611	0.000000
-4	-3	-4	2	4	-0.000123	0.000015
-4	-3	-4	3	4	-0.000121	-0.000031
-4	-3	-4	4	4	0.000328	0.000000
-4	-3	-4	5	4	0.000000	0.000001
-4	-3	-4	6	4	-0.000039	0.000032
-4	-3	-4	7	4	0.000039	-0.000015
-4	-3	-4	8	4	0.000000	0.000000
-4	-3	-4	1	5	0.000000	0.000000
-4	-3	-4	2	5	-0.000001	0.000111
-4	-3	-4	3	5	-0.000001	0.000002
-4	-3	-4	4	5	0.000000	0.000001
-4	-3	-4	5	5	-0.000877	0.000000
-4	-3	-4	6	5	-0.000017	0.000002
-4	-3	-4	7	5	-0.000009	0.000111
-4	-3	-4	8	5	0.000611	0.000000
-4	-3	-4	1	6	-0.000001	0.000111
-4	-3	-4	2	6	0.000000	0.000000
-4	-3	-4	3	6	0.000035	0.000039
-4	-3	-4	4	6	-0.000039	-0.000032
-4	-3	-4	5	6	0.000017	0.000002
-4	-3	-4	6	6	0.000301	0.000000
-4	-3	-4	7	6	-0.000081	-0.000038
-4	-3	-4	8	6	-0.000123	0.000015
-4	-3	-4	1	7	-0.000001	0.000002
-4	-3	-4	2	7	-0.000035	-0.000039
-4	-3	-4	3	7	0.000000	0.000000
-4	-3	-4	4	7	0.000039	0.000015
-4	-3	-4	5	7	0.000009	0.000111
-4	-3	-4	6	7	-0.000081	0.000038
-4	-3	-4	7	7	0.000295	0.000000
-4	-3	-4	8	7	-0.000121	-0.000031
-4	-3	-4	1	8	0.000000	0.000001
-4	-3	-4	2	8	0.000039	0.000032
-4	-3	-4	3	8	-0.000039	-0.000015
-4	-3	-4	4	8	0.000000	0.000000
-4	-3	-4	5	8	-0.000611	0.000000
-4	-3	-4	6	8	-0.000123	-0.000015
-4	-3	-4	7	8	-0.000121	0.000031
-4	-3	-4	8	8	0.000328	0.000000
-4	-3	-3	1	1	-0.000691	0.000000
-4	-3	-3	2	1	0.000139	0.000007
-4	-3	-3	3	1	0.000106	-0.000013
-4	-3	-3	4	1	0.000140	0.000028
-4	-3	-3	5	1	0.000000	0.000000
-4	-3	-3	6	1	0.000028	0.000033
-4	-3	-3	7	1	-0.000013	0.000000
-4	-3	-3	8	1	0.000007	-0.000033
-4	-3	-3	1	2	-0.000139	0.000007
-4	-3	-3	2	2	0.000214	0.000000
-4	-3	-3	3	2	-0.000094	0.000101
-4	-3	-3	4	2	-0.000106	-0.000022
-4	-3	-3	5	2	0.000028	0.000033
-4	-3	-3	6	2	0.000000	0.000000
-4	-3	-3	7	2	-0.000032	0.000031
-4	-3	-3	8	2	0.000022	-0.000027
-4	-3	-3	1	3	-0.000106	-0.000013
-4	-3	-3	2	3	-0.000094	-0.000101
-4	-3	-3	3	3	0.000137	0.000000
-4	-3	-3	4	3	-0.000095	0.000030
-4	-3	-3	5	3	-0.000013	0.000000
-4	-3	-3	6	3	0.000032	-0.000031
-4	-3	-3	7	3	0.000000	0.000000
-4	-3	-3	8	3	-0.000101	0.000030
-4	-3	-3	1	4	-0.000140	0.000028
-4	-3	-3	2	4	-0.000106	0.000022
-4	-3	-3	3	4	-0.000095	-0.000030
-4	-3	-3	4	4	0.000206	0.000000
-4	-3	-3	5	4	0.000007	-0.000033
-4	-3	-3	6	4	-0.000022	0.000027
-4	-3	-3	7	4	0.000101	-0.000030
-4	-3	-3	8	4	0.000000	0.000000
-4	-3	-3	1	5	0.000000	0.000000
-4	-3	-3	2	5	-0.000028	0.000033
-4	-3	-3	3	5	0.000013	0.000000
-4	-3	-3	4	5	-0.000007	-0.000033
-4	-3	-3	5	5	-0.000691	0.000000
-4	-3	-3	6	5	0.000139	-0.000007
-4	-3	-3	7	5	0.000106	0.000013
-4	-3	-3	8	5	0.000140	-0.000028
-4	-3	-3	1	6	-0.000028	0.000033
-4	-3	-3	2	6	0.000000	0.000000
-4	-3	-3	3	6	0.000032	0.000031
-4	-3	-3	4	6	-0.000022	-0.000027
-4	-3	-3	5	6	-0.000139	-0.000007
-4	-3	-3	6	6	0.000214	0.000000
-4	-3	-3	7	6	-0.000094	-0.000101
-4	-3	-3	8	6	-0.000106	0.000022
-4	-3	-3	1	7	0.000013	0.000000
-4	-3	-3	2	7	-0.000032	-0.000031
-4	-3	-3	3	7	0.000000	0.000000
-4	-3	-3	4	7	0.000101	0.000030
-4	-3	-3	5	7	-0.000106	0.000013
-4	-3	-3	6	7	-0.000094	0.000101
-4	-3	-3	7	7	0.000137	0.000000
-4	-3	-3	8	7	-0.000095	-0.000030
-4	-3	-3	1	8	-0.000007	-0.000033
-4	-3	-3	2	8	0.000022	0.000027
-4	-3	-3	3	8	-0.000101	-0.000030
-4	-3	-3	4	8	0.000000	0.000000
-4	-3	-3	5	8	-0.000140	-0.000028
-4	-3	-3	6	8	-0.000106	-0.000022
-4	-3	-3	7	8	-0.000095	0.000030
-4	-3	-3	8	8	0.000206	0.000000
-4	-3	-2	1	1	-0.000603	0.000000
-4	-3	-2	2	1	0.000592	0.000003
-4	-3	-2	3	1	0.000001	0.000120
-4	-3	-2	4	1	0.000071	-0.000022
-4	-3	-2	5	1	0.000000	0.000000
-4	-3	-2	6	1	0.000034	-0.000022
-4	-3	-2	7	1	-0.000072	0.000022
-4	-3	-2	8	1	0.000019	-0.000102
-4	-3	-2	1	2	-0.000592	0.000003
-4	-3	-2	2	2	0.000064	0.000000
-4	-3	-2	3	2	0.000075	0.000040
-4	-3	-2	4	2	0.000326	0.000002
-4	-3	-2	5	2	0.000034	-0.000022
-4	-3	-2	6	2	0.000000	0.000000
-4	-3	-2	7	2	-0.000037	-0.000003
-4	-3	-2	8	2	-0.000013	-0.000017
-4	-3	-2	1	3	-0.000001	0.000120
-4	-3	-2	2	3	0.000075	-0.000040
-4	-3	-2	3	3	0.000337	0.000000
-4	-3	-2	4	3	-0.000070	0.000087
-4	-3	-2	5	3	-0.000072	0.000022
-4	-3	-2	6	3	0.000037	0.000003
-4	-3	-2	7	3	0.000000	0.000000
-4	-3	-2	8	3	-0.000105	0.000014
-4	-3	-2	1	4	-0.000071	-0.000022
-4	-3	-2	2	4	0.000326	-0.000002
-4	-3	-2	3	4	-0.000070	-0.000087
-4	-3	-2	4	4	0.000248	0.000000
-4	-3	-2	5	4	0.000019	-0.000102
-4	-3	-2	6	4	0.000013	0.000017
-4	-3	-2	7	4	0.000105	-0.000014
-4	-3	-2	8	4	0.000000	0.000000
-4	-3	-2	1	5	0.000000	0.000000
-4	-3	-2	2	5	-0.000034	-0.000022
-4	-3	-2	3	5	0.000072	0.000022
-4	-3	-2	4	5	-0.000019	-0.000102
-4	-3	-2	5	5	-0.000603	0.000000
-4	-3	-2	6	5	0.000592	-0.000003
-4	-3	-2	7	5	0.000001	-0.000120
-4	-3	-2	8	5	0.000071	0.000022
-4	-3	-2	1	6	-0.000034	-0.000022
-4	-3	-2	2	6	0.000000	0.000000
-4	-3	-2	3	6	0.000037	-0.000003
-4	-3	-2	4	6	0.000013	-0.000017
-4	-3	-2	5	6	-0.000592	-0.000003
-4	-3	-2	6	6	0.000064	0.000000
-4	-3	-2	7	6	0.000075	-0.000040
-4	-3	-2	8	6	0.000326	-0.000002
-4	-3	-2	1	7	0.000072	0.000022
-4	-3	-2	2	7	-0.000037	0.000003
-4	-3	-2	3	7	0.000000	0.000000
-4	-3	-2	4	7	0.000105	0.000014
-4	-3	-2	5	7	-0.000001	-0.000120
-4	-3	-2	6	7	0.000075	0.000040
-4	-3	-2	7	7	0.000337	0.000000
-4	-3	-2	8	7	-0.000070	-0.000087
-4	-3	-2	1	8	-0.000019	-0.000102
-4	-3	-2	2	8	-0.000013	0.000017
-4	-3	-2	3	8	-0.000105	-0.000014
-4	-3	-2	4	8	0.000000	0.000000
-4	-3	-2	5	8	-0.000071	0.000022
-4	-3	-2	6	8	0.000326	0.000002
-4	-3	-2	7	8	-0.000070	0.000087
-4	-3	-2	8	8	0.000248	0.000000
-4	-3	-1	1	1	-0.001920	0.000000
-4	-3	-1	2	1	0.000867	-0.000007
-4	-3	-1	3	1	0.000566	-0.000066
-4	-3	-1	4	1	0.001119	0.000016
-4	-3	-1	5	1	0.000000	0.000000
-4	-3	-1	6	1	0.000042	-0.000026
-4	-3	-1	7	1	-0.000055	0.000038
-4	-3	-1	8	1	0.000030	-0.000095
-4	-3	-1	1	2	-0.000867	-0.000007
-4	-3	-1	2	2	-0.000341	0.000000
-4	-3	-1	3	2	0.000126	-0.000032
-4	-3	-1	4	2	0.000580	0.000011
-4	-3	-1	5	2	0.000042	-0.000026
-4	-3	-1	6	2	0.000000	0.000000
-4	-3	-1	7	2	0.000002	-0.000050
-4	-3	-1	8	2	-0.000074	0.000006
-4	-3	-1	1	3	-0.000566	-0.000066
-4	-3	-1	2	3	0.000126	0.000032
-4	-3	-1	3	3	0.001290	0.000000
-4	-3	-1	4	3	0.000251	0.000138
-4	-3	-1	5	3	-0.000055	0.000038
-4	-3	-1	6	3	-0.000002	0.000050
-4	-3	-1	7	3	0.000000	0.000000
-4	-3	-1	8	3	-0.000070	0.000045
-4	-3	-1	1	4	-0.001119	0.000016
-4	-3	-1	2	4	0.000580	-0.000011
-4	-3	-1	3	4	0.000251	-0.000138
-4	-3	-1	4	4	0.001093	0.000000
-4	-3	-1	5	4	0.000030	-0.000095
-4	-3	-1	6	4	0.000074	-0.000006
-4	-3	-1	7	4	0.000070	-0.000045
-4	-3	-1	8	4	0.000000	0.000000
-4	-3	-1	1	5	0.000000	0.000000
-4	-3	-1	2	5	-0.000042	-0.000026
-4	-3	-1	3	5	0.000055	0.000038
-4	-3	-1	4	5	-0.000030	-0.000095
-4	-3	-1	5	5	-0.001920	0.000000
-4	-3	-1	6	5	0.000867	0.000007
-4	-3	-1	7	5	0.000566	0.000066
-4	-3	-1	8	5	0.001119	-0.000016
-4	-3	-1	1	6	-0.000042	-0.000026
-4	-3	-1	2	6	0.000000	0.000000
-4	-3	-1	3	6	-0.000002	-0.000050
-4	-3	-1	4	6	0.000074	0.000006
-4	-3	-1	5	6	-0.000867	0.000007
-4	-3	-1	6	6	-0.000341	0.000000
-4	-3	-1	7	6	0.000126	0.000032
-4	-3	-1	8	6	0.000580	-0.000011
-4	-3	-1	1	7	0.000055	0.000038
-4	-3	-1	2	7	0.000002	0.000050
-4	-3	-1	3	7	0.000000	0.000000
-4	-3	-1	4	7	0.000070	0.000045
-4	-3	-1	5	7	-0.000566	0.000066
-4	-3	-1	6	7	0.000126	-0.000032
-4	-3	-1	7	7	0.001290	0.000000
-4	-3	-1	8	7	0.000251	-0.000138
-4	-3	-1	1	8	-0.000030	-0.000095
-4	-3	-1	2	8	-0.000074	-0.000006
-4	-3	-1	3	8	-0.000070	-0.000045
-4	-3	-1	4	8	0.000000	0.000000
-4	-3	-1	5	8	-0.001119	-0.000016
-4	-3	-1	6	8	0.000580	0.000011
-4	-3	-1	7	8	0.000251	0.000138
-4	-3	-1	8	8	0.001093	0.000000
-4	-3	0	1	1	-0.003618	0.000000
-4	-3	0	2	1	0.000040	0.000008
-4	-3	0	3	1	0.001185	-0.000224
-4	-3	0	4	1	0.002134	0.000070
-4	-3	0	5	1	0.000000	0.000000
-4	-3	0	6	1	0.000041	-0.000017
-4	-3	0	7	1	0.000011	-0.000008
-4	-3	0	8	1	-0.000001	0.000000
-4	-3	0	1	2	-0.000040	0.000008
-4	-3	0	2	2	-0.000622	0.000000
-4	-3	0	3	2	-0.000044	0.000017
-4	-3	0	4	2	0.000034	0.000002
-4	-3	0	5	2	0.000041	-0.000017
-4	-3	0	6	2	0.000000	0.000000
-4	-3	0	7	2	0.000028	-0.000093
-4	-3	0	8	2	-0.000100	0.000005
-4	-3	0	1	3	-0.001185	-0.000224
-4	-3	0	2	3	-0.000044	-0.000017
-4	-3	0	3	3	0.002252	0.000000
-4	-3	0	4	3	0.000864	0.000137
-4	-3	0	5	3	0.000011	-0.000008
-4	-3	0	6	3	-0.000028	0.000093
-4	-3	0	7	3	0.000000	0.000000
-4	-3	0	8	3	-0.000005	0.000011
-4	-3	0	1	4	-0.002134	0.000070
-4	-3	0	2	4	0.000034	-0.000002
-4	-3	0	3	4	0.000864	-0.000137
-4	-3	0	4	4	0.001862	0.000000
-4	-3	0	5	4	-0.000001	0.000000
-4	-3	0	6	4	0.000100	-0.000005
-4	-3	0	7	4	0.000005	-0.000011
-4	-3	0	8	4	0.000000	0.000000
-4	-3	0	1	5	0.000000	0.000000
-4	-3	0	2	5	-0.000041	-0.000017
-4	-3	0	3	5	-0.000011	-0.000008
-4	-3	0	4	5	0.000001	0.000000
-4	-3	0	5	5	-0.003618	0.000000
-4	-3	0	6	5	0.000040	-0.000008
-4	-3	0	7	5	0.001185	0.000224
-4	-3	0	8	5	0.002134	-0.000070
-4	-3	0	1	6	-0.000041	-0.000017
-4	-3	0	2	6	0.000000	0.000000
-4	-3	0	3	6	-0.000028	-0.000093
-4	-3	0	4	6	0.000100	0.000005
-4	-3	0	5	6	-0.000040	-0.000008
-4	-3	0	6	6	-0.000622	0.000000
-4	-3	0	7	6	-0.000044	-0.000017
-4	-3	0	8	6	0.000034	-0.000002
-4	-3	0	1	7	-0.000011	-0.000008
-4	-3	0	2	7	0.000028	0.000093
-4	-3	0	3	7	0.000000	0.000000
-4	-3	0	4	7	0.000005	0.000011
-4	-3	0	5	7	-0.001185	0.000224
-4	-3	0	6	7	-0.000044	0.000017
-4	-3	0	7	7	0.002252	0.000000
-4	-3	0	8	7	0.000864	-0.000137
-4	-3	0	1	8	0.000001	0.000000
-4	-3	0	2	8	-0.000100	-0.000005
-4	-3	0	3	8	-0.000005	-0.000011
-4	-3	0	4	8	0.000000	0.000000
-4	-3	0	5	8	-0.002134	-0.000070
-4	-3	0	6	8	0.000034	0.000002
-4	-3	0	7	8	0.000864	0.000137
-4	-3	0	8	8	0.001862	0.000000
-4	-3	1	1	1	-0.001967	0.000000
-4	-3	1	2	1	-0.000816	0.000021
-4	-3	1	3	1	0.000598	-0.000061
-4	-3	1	4	1	0.001092	0.000002
-4	-3	1	5	1	0.000000	0.000000
-4	-3	1	6	1	0.000023	-0.000017
-4	-3	1	7	1	0.000067	-0.000040
-4	-3	1	8	1	-0.000023	0.000081
-4	-3	1	1	2	0.000816	0.000021
-4	-3	1	2	2	-0.000315	0.000000
-4	-3	1	3	2	-0.000197	0.000056
-4	-3	1	4	2	-0.000515	-0.000001
-4	-3	1	5	2	0.000023	-0.000017
-4	-3	1	6	2	0.000000	0.000000
-4	-3	1	7	2	0.000015	-0.000062
-4	-3	1	8	2	-0.000074	0.000006
-4	-3	1	1	3	-0.000598	-0.000061
-4	-3	1	2	3	-0.000197	-0.000056
-4	-3	1	3	3	0.001153	0.000000
-4	-3	1	4	3	0.000417	0.000097
-4	-3	1	5	3	0.000067	-0.000040
-4	-3	1	6	3	-0.000015	0.000062
-4	-3	1	7	3	0.000000	0.000000
-4	-3	1	8	3	0.000062	-0.000029
-4	-3	1	1	4	-0.001092	0.000002
-4	-3	1	2	4	-0.000515	0.000001
-4	-3	1	3	4	0.000417	-0.000097
-4	-3	1	4	4	0.000963	0.000000
-4	-3	1	5	4	-0.000023	0.000081
-4	-3	1	6	4	0.000074	-0.000006
-4	-3	1	7	4	-0.000062	0.000029
-4	-3	1	8	4	0.000000	0.000000
-4	-3	1	1	5	0.000000	0.000000
-4	-3	1	2	5	-0.000023	-0.000017
-4	-3	1	3	5	-0.000067	-0.000040
-4	-3	1	4	5	0.000023	0.000081
-4	-3	1	5	5	-0.001967	0.000000
-4	-3	1	6	5	-0.000816	-0.000021
-4	-3	1	7	5	0.000598	0.000061
-4	-3	1	8	5	0.001092	-0.000002
-4	-3	1	1	6	-0.000023	-0.000017
-4	-3	1	2	6	0.000000	0.000000
-4	-3	1	3	6	-0.000015	-0.000062
-4	-3	1	4	6	0.000074	0.000006
-4	-3	1	5	6	0.000816	-0.000021
-4	-3	1	6	6	-0.000315	0.000000
-4	-3	1	7	6	-0.000197	-0.000056
-4	-3	1	8	6	-0.000515	0.000001
-4	-3	1	1	7	-0.000067	-0.000040
-4	-3	1	2	7	0.000015	0.000062
-4	-3	1	3	7	0.000000	0.000000
-4	-3	1	4	7	-0.000062	-0.000029
-4	-3	1	5	7	-0.000598	0.000061
-4	-3	1	6	7	-0.000197	0.000056
-4	-3	1	7	7	0.001153	0.000000
-4	-3	1	8	7	0.000417	-0.000097
-4	-3	1	1	8	0.000023	0.000081
-4	-3	1	2	8	-0.000074	-0.000006
-4	-3	1	3	8	0.000062	0.000029
-4	-3	1	4	8	0.000000	0.000000
-4	-3	1	5	8	-0.001092	-0.000002
-4	-3	1	6	8	-0.000515	-0.000001
-4	-3	1	7	8	0.000417	0.000097
-4	-3	1	8	8	0.000963	0.000000
-4	-3	2	1	1	-0.000646	0.000000
-4	-3	2	2	1	-0.000575	0.000007
-4	-3	2	3	1	0.000010	0.000128
-4	-3	2	4	1	0.000109	-0.000048
-4	-3	2	5	1	0.000000	0.000000
-4	-3	2	6	1	0.000005	-0.000001
-4	-3	2	7	1	0.000081	-0.000023
-4	-3	2	8	1	-0.000018	0.000097
-4	-3	2	1	2	0.000575	0.000007
-4	-3	2	2	2	0.000106	0.000000
-4	-3	2	3	2	-0.000104	-0.000032
-4	-3	2	4	2	-0.000315	0.000004
-4	-3	2	5	2	0.000005	-0.000001
-4	-3	2	6	2	0.000000	0.000000
-4	-3	2	7	2	-0.000018	-0.000015
-4	-3	2	8	2	-0.000007	-0.000019
-4	-3	2	1	3	-0.000010	0.000128
-4	-3	2	2	3	-0.000104	0.000032
-4	-3	2	3	3	0.000375	0.000000
-4	-3	2	4	3	-0.000151	0.000109
-4	-3	2	5	3	0.000081	-0.000023
-4	-3	2	6	3	0.000018	0.000015
-4	-3	2	7	3	0.000000	0.000000
-4	-3	2	8	3	0.000104	-0.000016
-4	-3	2	1	4	-0.000109	-0.000048
-4	-3	2	2	4	-0.000315	-0.000004
-4	-3	2	3	4	-0.000151	-0.000109
-4	-3	2	4	4	0.000300	0.000000
-4	-3	2	5	4	-0.000018	0.000097
-4	-3	2	6	4	0.000007	0.000019
-4	-3	2	7	4	-0.000104	0.000016
-4	-3	2	8	4	0.000000	0.000000
-4	-3	2	1	5	0.000000	0.000000
-4	-3	2	2	5	-0.000005	-0.000001
-4	-3	2	3	5	-0.000081	-0.000023
-4	-3	2	4	5	0.000018	0.000097
-4	-3	2	5	5	-0.000646	0.000000
-4	-3	2	6	5	-0.000575	-0.000007
-4	-3	2	7	5	0.000010	-0.000128
-4	-3	2	8	5	0.000109	0.000048
-4	-3	2	1	6	-0.000005	-0.000001
-4	-3	2	2	6	0.000000	0.000000
-4	-3	2	3	6	0.000018	-0.000015
-4	-3	2	4	6	0.000007	-0.000019
-4	-3	2	5	6	0.000575	-0.000007
-4	-3	2	6	6	0.000106	0.000000
-4	-3	2	7	6	-0.000104	0.000032
-4	-3	2	8	6	-0.000315	-0.000004
-4	-3	2	1	7	-0.000081	-0.000023
-4	-3	2	2	7	-0.000018	0.000015
-4	-3	2	3	7	0.000000	0.000000
-4	-3	2	4	7	-0.000104	-0.000016
-4	-3	2	5	7	-0.000010	-0.000128
-4	-3	2	6	7	-0.000104	-0.000032
-4	-3	2	7	7	0.000375	0.000000
-4	-3	2	8	7	-0.000151	-0.000109
-4	-3	2	1	8	0.000018	0.000097
-4	-3	2	2	8	-0.000007	0.000019
-4	-3	2	3	8	0.000104	0.000016
-4	-3	2	4	8	0.000000	0.000000
-4	-3	2	5	8	-0.000109	0.000048
-4	-3	2	6	8	-0.000315	0.000004
-4	-3	2	7	8	-0.000151	0.000109
-4	-3	2	8	8	0.000300	0.000000
-4	-3	3	1	1	-0.000731	0.000000
-4	-3	3	2	1	-0.000161	-0.000006
-4	-3	3	3	1	0.000115	-0.000016
-4	-3	3	4	1	0.000194	0.000013
-4	-3	3	5	1	0.000000	0.000000
-4	-3	3	6	1	0.000002	0.000056
-4	-3	3	7	1	0.000011	-0.000006
-4	-3	3	8	1	-0.000011	0.000046
-4	-3	3	1	2	0.000161	-0.000006
-4	-3	3	2	2	0.000234	0.000000
-4	-3	3	3	2	0.000117	-0.000117
-4	-3	3	4	2	0.000094	0.000024
-4	-3	3	5	2	0.000002	0.000056
-4	-3	3	6	2	0.000000	0.000000
-4	-3	3	7	2	-0.000023	0.000024
-4	-3	3	8	2	0.000030	-0.000037
-4	-3	3	1	3	-0.000115	-0.000016
-4	-3	3	2	3	0.000117	0.000117
-4	-3	3	3	3	0.000133	0.000000
-4	-3	3	4	3	-0.000063	0.000036
-4	-3	3	5	3	0.000011	-0.000006
-4	-3	3	6	3	0.000023	-0.000024
-4	-3	3	7	3	0.000000	0.000000
-4	-3	3	8	3	0.000110	-0.000031
-4	-3	3	1	4	-0.000194	0.000013
-4	-3	3	2	4	0.000094	-0.000024
-4	-3	3	3	4	-0.000063	-0.000036
-4	-3	3	4	4	0.000227	0.000000
-4	-3	3	5	4	-0.000011	0.000046
-4	-3	3	6	4	-0.000030	0.000037
-4	-3	3	7	4	-0.000110	0.000031
-4	-3	3	8	4	0.000000	0.000000
-4	-3	3	1	5	0.000000	0.000000
-4	-3	3	2	5	-0.000002	0.000056
-4	-3	3	3	5	-0.000011	-0.000006
-4	-3	3	4	5	0.000011	0.000046
-4	-3	3	5	5	-0.000731	0.000000
-4	-3	3	6	5	-0.000161	0.000006
-4	-3	3	7	5	0.000115	0.000016
-4	-3	3	8	5	0.000194	-0.000013
-4	-3	3	1	6	-0.000002	0.000056
-4	-3	3	2	6	0.000000	0.000000
-4	-3	3	3	6	0.000023	0.000024
-4	-3	3	4	6	-0.000030	-0.000037
-4	-3	3	5	6	0.000161	0.000006
-4	-3	3	6	6	0.000234	0.000000
-4	-3	3	7	6	0.000117	0.000117
-4	-3	3	8	6	0.000094	-0.000024
-4	-3	3	1	7	-0.000011	-0.000006
-4	-3	3	2	7	-0.000023	-0.000024
-4	-3	3	3	7	0.000000	0.000000
-4	-3	3	4	7	-0.000110	-0.000031
-4	-3	3	5	7	-0.000115	0.000016
-4	-3	3	6	7	0.000117	-0.000117
-4	-3	3	7	7	0.000133	0.000000
-4	-3	3	8	7	-0.000063	-0.000036
-4	-3	3	1	8	0.000011	0.000046
-4	-3	3	2	8	0.000030	0.000037
-4	-3	3	3	8	0.000110	0.000031
-4	-3	3	4	8	0.000000	0.000000
-4	-3	3	5	8	-0.000194	-0.000013
-4	-3	3	6	8	0.000094	0.000024
-4	-3	3	7	8	-0.000063	0.000036
-4	-3	3	8	8	0.000227	0.000000
-4	-3	4	1	1	-0.000895	0.000000
-4	-3	4	2	1	-0.000030	-0.000005
-4	-3	4	3	1	0.000045	-0.000123
-4	-3	4	4	1	0.000671	0.000004
-4	-3	4	5	1	0.000000	0.000000
-4	-3	4	6	1	-0.000008	0.000122
-4	-3	4	7	1	-0.000028	0.000009
-4	-3	4	8	1	0.000001	0.000000
-4	-3	4	1	2	0.000030	-0.000005
-4	-3	4	2	2	0.000301	0.000000
-4	-3	4	3	2	0.000105	-0.000052
-4	-3	4	4	2	0.000068	0.000008
-4	-3	4	5	2	-0.000008	0.000122
-4	-3	4	6	2	0.000000	0.000000
-4	-3	4	7	2	-0.000031	0.000037
-4	-3	4	8	2	0.000044	-0.000039
-4	-3	4	1	3	-0.000045	-0.000123
-4	-3	4	2	3	0.000105	0.000052
-4	-3	4	3	3	0.000185	0.000000
-4	-3	4	4	3	-0.000068	0.000013
-4	-3	4	5	3	-0.000028	0.000009
-4	-3	4	6	3	0.000031	-0.000037
-4	-3	4	7	3	0.000000	0.000000
-4	-3	4	8	3	0.000042	-0.000023
-4	-3	4	1	4	-0.000671	0.000004
-4	-3	4	2	4	0.000068	-0.000008
-4	-3	4	3	4	-0.000068	-0.000013
-4	-3	4	4	4	0.000298	0.000000
-4	-3	4	5	4	0.000001	0.000000
-4	-3	4	6	4	-0.000044	0.000039
-4	-3	4	7	4	-0.000042	0.000023
-4	-3	4	8	4	0.000000	0.000000
-4	-3	4	1	5	0.000000	0.000000
-4	-3	4	2	5	0.000008	0.000122
-4	-3	4	3	5	0.000028	0.000009
-4	-3	4	4	5	-0.000001	0.000000
-4	-3	4	5	5	-0.000895	0.000000
-4	-3	4	6	5	-0.000030	0.000005
-4	-3	4	7	5	0.000045	0.000123
-4	-3	4	8	5	0.000671	-0.000004
-4	-3	4	1	6	0.000008	0.000122
-4	-3	4	2	6	0.000000	0.000000
-4	-3	4	3	6	0.000031	0.000037
-4	-3	4	4	6	-0.000044	-0.000039
-4	-3	4	5	6	0.000030	0.000005
-4	-3	4	6	6	0.000301	0.000000
-4	-3	4	7	6	0.000105	0.000052
-4	-3	4	8	6	0.000068	-0.000008
-4	-3	4	1	7	0.000028	0.000009
-4	-3	4	2	7	-0.000031	-0.000037
-4	-3	4	3	7	0.000000	0.000000
-4	-3	4	4	7	-0.000042	-0.000023
-4	-3	4	5	7	-0.000045	0.000123
-4	-3	4	6	7	0.000105	-0.000052
-4	-3	4	7	7	0.000185	0.000000
-4	-3	4	8	7	-0.000068	-0.000013
-4	-3	4	1	8	-0.000001	0.000000
-4	-3	4	2	8	0.000044	0.000039
-4	-3	4	3	8	0.000042	0.000023
-4	-3	4	4	8	0.000000	0.000000
-4	-3	4	5	8	-0.000671	-0.000004
-4	-3	4	6	8	0.000068	0.000008
-4	-3	4	7	8	-0.000068	0.000013
-4	-3	4	8	8	0.000298	0.000000
-4	-2	-4	1	1	-0.000510	0.000000
-4	-2	-4	2	1	0.000022	0.000010
-4	-2	-4	3	1	0.000047	-0.000230
-4	-2	-4	4	1	0.001084	-0.000007
-4	-2	-4	5	1	0.000000	0.000000
-4	-2	-4	6	1	-0.000048	0.000230
-4	-2	-4	7	1	0.000051	-0.000009
-4	-2	-4	8	1	-0.000001	0.000010
-4	-2	-4	1	2	-0.000022	0.000010
-4	-2	-4	2	2	0.000258	0.000000
-4	-2	-4	3	2	-0.000013	0.000057
-4	-2	-4	4	2	0.000002	0.000006
-4	-2	-4	5	2	-0.000048	0.000230
-4	-2	-4	6	2	0.000000	0.000000
-4	-2	-4	7	2	-0.000145	0.000059
-4	-2	-4	8	2	0.000017	-0.000041
-4	-2	-4	1	3	-0.000047	-0.000230
-4	-2	-4	2	3	-0.000013	-0.000057
-4	-2	-4	3	3	0.000256	0.000000
-4	-2	-4	4	3	0.000005	0.000041
-4	-2	-4	5	3	0.000051	-0.000009
-4	-2	-4	6	3	0.000145	-0.000059
-4	-2	-4	7	3	0.000000	0.000000
-4	-2	-4	8	3	-0.000017	-0.000006
-4	-2	-4	1	4	-0.001084	-0.000007
-4	-2	-4	2	4	0.000002	-0.000006
-4	-2	-4	3	4	0.000005	-0.000041
-4	-2	-4	4	4	0.000066	0.000000
-4	-2	-4	5	4	-0.000001	0.000010
-4	-2	-4	6	4	-0.000017	0.000041
-4	-2	-4	7	4	0.000017	0.000006
-4	-2	-4	8	4	0.000000	0.000000
-4	-2	-4	1	5	0.000000	0.000000
-4	-2	-4	2	5	0.000048	0.000230
-4	-2	-4	3	5	-0.000051	-0.000009
-4	-2	-4	4	5	0.000001	0.000010
-4	-2	-4	5	5	-0.000510	0.000000
-4	-2	-4	6	5	0.000022	-0.000010
-4	-2	-4	7	5	0.000047	0.000230
-4	-2	-4	8	5	0.001084	0.000007
-4	-2	-4	1	6	0.000048	0.000230
-4	-2	-4	2	6	0.000000	0.000000
-4	-2	-4	3	6	0.000145	0.000059
-4	-2	-4	4	6	-0.000017	-0.000041
-4	-2	-4	5	6	-0.000022	-0.000010
-4	-2	-4	6	6	0.000258	0.000000
-4	-2	-4	7	6	-0.000013	-0.000057
-4	-2	-4	8	6	0.000002	-0.000006
-4	-2	-4	1	7	-0.000051	-0.000009
-4	-2	-4	2	7	-0.000145	-0.000059
-4	-2	-4	3	7	0.000000	0.000000
-4	-2	-4	4	7	0.000017	-0.000006
-4	-2	-4	5	7	-0.000047	0.000230
-4	-2	-4	6	7	-0.000013	0.000057
-4	-2	-4	7	7	0.000256	0.000000
-4	-2	-4	8	7	0.000005	-0.000041
-4	-2	-4	1	8	0.000001	0.000010
-4	-2	-4	2	8	0.000017	0.000041
-4	-2	-4	3	8	-0.000017	0.000006
-4	-2	-4	4	8	0.000000	0.000000
-4	-2	-4	5	8	-0.001084	0.000007
-4	-2	-4	6	8	0.000002	0.000006
-4	-2	-4	7	8	0.000005	0.000041
-4	-2	-4	8	8	0.000066	0.000000
-4	-2	-3	1	1	-0.000600	0.000000
-4	-2	-3	2	1	0.000053	0.000019
-4	-2	-3	3	1	0.000001	-0.000070
-4	-2	-3	4	1	0.000584	0.000034
-4	-2	-3	5	1	0.000000	0.000000
-4	-2	-3	6	1	-0.000022	0.000102
-4	-2	-3	7	1	0.000122	-0.000022
-4	-2	-3	8	1	0.000002	0.000023
-4	-2	-3	1	2	-0.000053	0.000019
-4	-2	-3	2	2	0.000248	0.000000
-4	-2	-3	3	2	-0.000078	0.000104
-4	-2	-3	4	2	0.000323	0.000013
-4	-2	-3	5	2	-0.000022	0.000102
-4	-2	-3	6	2	0.000000	0.000000
-4	-2	-3	7	2	-0.000089	0.000014
-4	-2	-3	8	2	-0.000002	-0.000018
-4	-2	-3	1	3	-0.000001	-0.000070
-4	-2	-3	2	3	-0.000078	-0.000104
-4	-2	-3	3	3	0.000334	0.000000
-4	-2	-3	4	3	0.000073	0.000035
-4	-2	-3	5	3	0.000122	-0.000022
-4	-2	-3	6	3	0.000089	-0.000014
-4	-2	-3	7	3	0.000000	0.000000
-4	-2	-3	8	3	-0.000040	-0.000003
-4	-2	-3	1	4	-0.000584	0.000034
-4	-2	-3	2	4	0.000323	-0.000013
-4	-2	-3	3	4	0.000073	-0.000035
-4	-2	-3	4	4	0.000063	0.000000
-4	-2	-3	5	4	0.000002	0.000023
-4	-2	-3	6	4	0.000002	0.000018
-4	-2	-3	7	4	0.000040	0.000003
-4	-2	-3	8	4	0.000000	0.000000
-4	-2	-3	1	5	0.000000	0.000000
-4	-2	-3	2	5	0.000022	0.000102
-4	-2	-3	3	5	-0.000122	-0.000022
-4	-2	-3	4	5	-0.000002	0.000023
-4	-2	-3	5	5	-0.000600	0.000000
-4	-2	-3	6	5	0.000053	-0.000019
-4	-2	-3	7	5	0.000001	0.000070
-4	-2	-3	8	5	0.000584	-0.000034
-4	-2	-3	1	6	0.000022	0.000102
-4	-2	-3	2	6	0.000000	0.000000
-4	-2	-3	3	6	0.000089	0.000014
-4	-2	-3	4	6	0.000002	-0.000018
-4	-2	-3	5	6	-0.000053	-0.000019
-4	-2	-3	6	6	0.000248	0.000000
-4	-2	-3	7	6	-0.000078	-0.000104
-4	-2	-3	8	6	0.000323	-0.000013
-4	-2	-3	1	7	-0.000122	-0.000022
-4	-2	-3	2	7	-0.000089	-0.000014
-4	-2	-3	3	7	0.000000	0.000000
-4	-2	-3	4	7	0.000040	-0.000003
-4	-2	-3	5	7	-0.000001	0.000070
-4	-2	-3	6	7	-0.000078	0.000104
-4	-2	-3	7	7	0.000334	0.000000
-4	-2	-3	8	7	0.000073	-0.000035
-4	-2	-3	1	8	-0.000002	0.000023
-4	-2	-3	2	8	-0.000002	0.000018
-4	-2	-3	3	8	-0.000040	0.000003
-4	-2	-3	4	8	0.000000	0.000000
-4	-2	-3	5	8	-0.000584	-0.000034
-4	-2	-3	6	8	0.000323	0.000013
-4	-2	-3	7	8	0.000073	0.000035
-4	-2	-3	8	8	0.000063	0.000000
-4	-2	-2	1	1	-0.000394	0.000000
-4	-2	-2	2	1	0.000320	0.000021
-4	-2	-2	3	1	-0.000004	0.000094
-4	-2	-2	4	1	0.000327	0.000032
-4	-2	-2	5	1	0.000000	0.000000
-4	-2	-2	6	1	0.000031	-0.000041
-4	-2	-2	7	1	0.000093	0.000000
-4	-2	-2	8	1	0.000021	0.000040
-4	-2	-2	1	2	-0.000320	0.000021
-4	-2	-2	2	2	0.000143	0.000000
-4	-2	-2	3	2	-0.000050	0.000019
-4	-2	-2	4	2	0.001178	0.000000
-4	-2	-2	5	2	0.000031	-0.000041
-4	-2	-2	6	2	0.000000	0.000000
-4	-2	-2	7	2	0.000000	-0.000014
-4	-2	-2	8	2	0.000001	-0.000001
-4	-2	-2	1	3	0.000004	0.000094
-4	-2	-2	2	3	-0.000050	-0.000019
-4	-2	-2	3	3	0.000856	0.000000
-4	-2	-2	4	3	-0.000046	0.000000
-4	-2	-2	5	3	0.000093	0.000000
-4	-2	-2	6	3	0.000000	0.000014
-4	-2	-2	7	3	0.000000	0.000000
-4	-2	-2	8	3	-0.000019	-0.000014
-4	-2	-2	1	4	-0.000327	0.000032
-4	-2	-2	2	4	0.001178	0.000000
-4	-2	-2	3	4	-0.000046	0.000000
-4	-2	-2	4	4	0.000153	0.000000
-4	-2	-2	5	4	0.000021	0.000040
-4	-2	-2	6	4	-0.000001	0.000001
-4	-2	-2	7	4	0.000019	0.000014
-4	-2	-2	8	4	0.000000	0.000000
-4	-2	-2	1	5	0.000000	0.000000
-4	-2	-2	2	5	-0.000031	-0.000041
-4	-2	-2	3	5	-0.000093	0.000000
-4	-2	-2	4	5	-0.000021	0.000040
-4	-2	-2	5	5	-0.000394	0.000000
-4	-2	-2	6	5	0.000320	-0.000021
-4	-2	-2	7	5	-0.000004	-0.000094
-4	-2	-2	8	5	0.000327	-0.000032
-4	-2	-2	1	6	-0.000031	-0.000041
-4	-2	-2	2	6	0.000000	0.000000
-4	-2	-2	3	6	0.000000	-0.000014
-4	-2	-2	4	6	-0.000001	-0.000001
-4	-2	-2	5	6	-0.000320	-0.000021
-4	-2	-2	6	6	0.000143	0.000000
-4	-2	-2	7	6	-0.000050	-0.000019
-4	-2	-2	8	6	0.001178	0.000000
-4	-2	-2	1	7	-0.000093	0.000000
-4	-2	-2	2	7	0.000000	0.000014
-4	-2	-2	3	7	0.000000	0.000000
-4	-2	-2	4	7	0.000019	-0.000014
-4	-2	-2	5	7	0.000004	-0.000094
-4	-2	-2	6	7	-0.000050	0.000019
-4	-2	-2	7	7	0.000856	0.000000
-4	-2	-2	8	7	-0.000046	0.000000
-4	-2	-2	1	8	-0.000021	0.000040
-4	-2	-2	2	8	0.000001	0.000001
-4	-2	-2	3	8	-0.000019	0.000014
-4	-2	-2	4	8	0.000000	0.000000
-4	-2	-2	5	8	-0.000327	-0.000032
-4	-2	-2	6	8	0.001178	0.000000
-4	-2	-2	7	8	-0.000046	0.000000
-4	-2	-2	8	8	0.000153	0.000000
-4	-2	-1	1	1	-0.001352	0.000000
-4	-2	-1	2	1	0.000869	0.000022
-4	-2	-1	3	1	0.000054	-0.000168
-4	-2	-1	4	1	0.002628	-0.000021
-4	-2	-1	5	1	0.000000	0.000000
-4	-2	-1	6	1	0.000068	-0.000097
-4	-2	-1	7	1	-0.000020	0.000031
-4	-2	-1	8	1	0.000041	0.000057
-4	-2	-1	1	2	-0.000869	0.000022
-4	-2	-1	2	2	-0.000435	0.000000
-4	-2	-1	3	2	0.000243	-0.000045
-4	-2	-1	4	2	0.001687	-0.000011
-4	-2	-1	5	2	0.000068	-0.000097
-4	-2	-1	6	2	0.000000	0.000000
-4	-2	-1	7	2	0.000158	-0.000085
-4	-2	-1	8	2	-0.000068	0.000008
-4	-2	-1	1	3	-0.000054	-0.000168
-4	-2	-1	2	3	0.000243	0.000045
-4	-2	-1	3	3	0.001615	0.000000
-4	-2	-1	4	3	0.001016	-0.000074
-4	-2	-1	5	3	-0.000020	0.000031
-4	-2	-1	6	3	-0.000158	0.000085
-4	-2	-1	7	3	0.000000	0.000000
-4	-2	-1	8	3	-0.000031	0.000004
-4	-2	-1	1	4	-0.002628	-0.000021
-4	-2	-1	2	4	0.001687	0.000011
-4	-2	-1	3	4	0.001016	0.000074
-4	-2	-1	4	4	0.000649	0.000000
-4	-2	-1	5	4	0.000041	0.000057
-4	-2	-1	6	4	0.000068	-0.000008
-4	-2	-1	7	4	0.000031	-0.000004
-4	-2	-1	8	4	0.000000	0.000000
-4	-2	-1	1	5	0.000000	0.000000
-4	-2	-1	2	5	-0.000068	-0.000097
-4	-2	-1	3	5	0.000020	0.000031
-4	-2	-1	4	5	-0.000041	0.000057
-4	-2	-1	5	5	-0.001352	0.000000
-4	-2	-1	6	5	0.000869	-0.000022
-4	-2	-1	7	5	0.000054	0.000168
-4	-2	-1	8	5	0.002628	0.000021
-4	-2	-1	1	6	-0.000068	-0.000097
-4	-2	-1	2	6	0.000000	0.000000
-4	-2	-1	3	6	-0.000158	-0.000085
-4	-2	-1	4	6	0.000068	0.000008
-4	-2	-1	5	6	-0.000869	-0.000022
-4	-2	-1	6	6	-0.000435	0.000000
-4	-2	-1	7	6	0.000243	0.000045
-4	-2	-1	8	6	0.001687	0.000011
-4	-2	-1	1	7	0.000020	0.000031
-4	-2	-1	2	7	0.000158	0.000085
-4	-2	-1	3	7	0.000000	0.000000
-4	-2	-1	4	7	0.000031	0.000004
-4	-2	-1	5	7	-0.000054	0.000168
-4	-2	-1	6	7	0.000243	-0.000045
-4	-2	-1	7	7	0.001615	0.000000
-4	-2	-1	8	7	0.001016	0.000074
-4	-2	-1	1	8	-0.000041	0.000057
-4	-2	-1	2	8	-0.000068	-0.000008
-4	-2	-1	3	8	-0.000031	-0.000004
-4	-2	-1	4	8	0.000000	0.000000
-4	-2	-1	5	8	-0.002628	0.000021
-4	-2	-1	6	8	0.001687	-0.000011
-4	-2	-1	7	8	0.001016	-0.000074
-4	-2	-1	8	8	0.000649	0.000000
-4	-2	0	1	1	-0.004222	0.000000
-4	-2	0	2	1	-0.000065	0.000003
-4	-2	0	3	1	0.000762	-0.000418
-4	-2	0	4	1	0.006139	-0.000039
-4	-2	0	5	1	0.000000	0.000000
-4	-2	0	6	1	0.000070	-0.000104
-4	-2	0	7	1	0.000001	0.000002
-4	-2	0	8	1	0.000009	-0.000009
-4	-2	0	1	2	0.000065	0.000003
-4	-2	0	2	2	-0.000922	0.000000
-4	-2	0	3	2	-0.000013	0.000003
-4	-2	0	4	2	0.000020	0.000001
-4	-2	0	5	2	0.000070	-0.000104
-4	-2	0	6	2	0.000000	0.000000
-4	-2	0	7	2	0.000260	-0.000098
-4	-2	0	8	2	-0.000132	0.000008
-4	-2	0	1	3	-0.000762	-0.000418
-4	-2	0	2	3	-0.000013	-0.000003
-4	-2	0	3	3	0.001803	0.000000
-4	-2	0	4	3	0.003120	-0.000015
-4	-2	0	5	3	0.000001	0.000002
-4	-2	0	6	3	-0.000260	0.000098
-4	-2	0	7	3	0.000000	0.000000
-4	-2	0	8	3	-0.000014	0.000010
-4	-2	0	1	4	-0.006139	-0.000039
-4	-2	0	2	4	0.000020	-0.000001
-4	-2	0	3	4	0.003120	0.000015
-4	-2	0	4	4	0.001637	0.000000
-4	-2	0	5	4	0.000009	-0.000009
-4	-2	0	6	4	0.000132	-0.000008
-4	-2	0	7	4	0.000014	-0.000010
-4	-2	0	8	4	0.000000	0.000000
-4	-2	0	1	5	0.000000	0.000000
-4	-2	0	2	5	-0.000070	-0.000104
-4	-2	0	3	5	-0.000001	0.000002
-4	-2	0	4	5	-0.000009	-0.000009
-4	-2	0	5	5	-0.004222	0.000000
-4	-2	0	6	5	-0.000065	-0.000003
-4	-2	0	7	5	0.000762	0.000418
-4	-2	0	8	5	0.006139	0.000039
-4	-2	0	1	6	-0.000070	-0.000104
-4	-2	0	2	6	0.000000	0.000000
-4	-2	0	3	6	-0.000260	-0.000098
-4	-2	0	4	6	0.000132	0.000008
-4	-2	0	5	6	0.000065	-0.000003
-4	-2	0	6	6	-0.000922	0.000000
-4	-2	0	7	6	-0.000013	-0.000003
-4	-2	0	8	6	0.000020	-0.000001
-4	-2	0	1	7	-0.000001	0.000002
-4	-2	0	2	7	0.000260	0.000098
-4	-2	0	3	7	0.000000	0.000000
-4	-2	0	4	7	0.000014	0.000010
-4	-2	0	5	7	-0.000762	0.000418
-4	-2	0	6	7	-0.000013	0.000003
-4	-2	0	7	7	0.001803	0.000000
-4	-2	0	8	7	0.003120	0.000015
-4	-2	0	1	8	-0.000009	-0.000009
-4	-2	0	2	8	-0.000132	-0.000008
-4	-2	0	3	8	-0.000014	-0.000010
-4	-2	0	4	8	0.000000	0.000000
-4	-2	0	5	8	-0.006139	0.000039
-4	-2	0	6	8	0.000020	0.000001
-4	-2	0	7	8	0.003120	-0.000015
-4	-2	0	8	8	0.001637	0.000000
-4	-2	1	1	1	-0.001313	0.000000
-4	-2	1	2	1	-0.000992	-0.000019
-4	-2	1	3	1	0.000007	-0.000150
-4	-2	1	4	1	0.002693	-0.000038
-4	-2	1	5	1	0.000000	0.000000
-4	-2	1	6	1	0.000048	-0.000078
-4	-2	1	7	1	0.000021	-0.000015
-4	-2	1	8	1	-0.000025	-0.000077
-4	-2	1	1	2	0.000992	-0.000019
-4	-2	1	2	2	-0.000399	0.000000
-4	-2	1	3	2	-0.000271	0.000047
-4	-2	1	4	2	-0.001660	0.000015
-4	-2	1	5	2	0.000048	-0.000078
-4	-2	1	6	2	0.000000	0.000000
-4	-2	1	7	2	0.000146	-0.000083
-4	-2	1	8	2	-0.000073	0.000007
-4	-2	1	1	3	-0.000007	-0.000150
-4	-2	1	2	3	-0.000271	-0.000047
-4	-2	1	3	3	0.001645	0.000000
-4	-2	1	4	3	0.001270	-0.000105
-4	-2	1	5	3	0.000021	-0.000015
-4	-2	1	6	3	-0.000146	0.000083
-4	-2	1	7	3	0.000000	0.000000
-4	-2	1	8	3	0.000036	-0.000011
-4	-2	1	1	4	-0.002693	-0.000038
-4	-2	1	2	4	-0.001660	-0.000015
-4	-2	1	3	4	0.001270	0.000105
-4	-2	1	4	4	0.000528	0.000000
-4	-2	1	5	4	-0.000025	-0.000077
-4	-2	1	6	4	0.000073	-0.000007
-4	-2	1	7	4	-0.000036	0.000011
-4	-2	1	8	4	0.000000	0.000000
-4	-2	1	1	5	0.000000	0.000000
-4	-2	1	2	5	-0.000048	-0.000078
-4	-2	1	3	5	-0.000021	-0.000015
-4	-2	1	4	5	0.000025	-0.000077
-4	-2	1	5	5	-0.001313	0.000000
-4	-2	1	6	5	-0.000992	0.000019
-4	-2	1	7	5	0.000007	0.000150
-4	-2	1	8	5	0.002693	0.000038
-4	-2	1	1	6	-0.000048	-0.000078
-4	-2	1	2	6	0.000000	0.000000
-4	-2	1	3	6	-0.000146	-0.000083
-4	-2	1	4	6	0.000073	0.000007
-4	-2	1	5	6	0.000992	0.000019
-4	-2	1	6	6	-0.000399	0.000000
-4	-2	1	7	6	-0.000271	-0.000047
-4	-2	1	8	6	-0.001660	-0.000015
-4	-2	1	1	7	-0.000021	-0.000015
-4	-2	1	2	7	0.000146	0.000083
-4	-2	1	3	7	0.000000	0.000000
-4	-2	1	4	7	-0.000036	-0.000011
-4	-2	1	5	7	-0.000007	0.000150
-4	-2	1	6	7	-0.000271	0.000047
-4	-2	1	7	7	0.001645	0.000000
-4	-2	1	8	7	0.001270	0.000105
-4	-2	1	1	8	0.000025	-0.000077
-4	-2	1	2	8	-0.000073	-0.000007
-4	-2	1	3	8	0.000036	0.000011
-4	-2	1	4	8	0.000000	0.000000
-4	-2	1	5	8	-0.002693	0.000038
-4	-2	1	6	8	-0.001660	0.000015
-4	-2	1	7	8	0.001270	-0.000105
-4	-2	1	8	8	0.000528	0.000000
-4	-2	2	1	1	-0.000373	0.000000
-4	-2	2	2	1	-0.000391	-0.000018
-4	-2	2	3	1	-0.000084	0.000101
-4	-2	2	4	1	0.000420	0.000005
-4	-2	2	5	1	0.000000	0.000000
-4	-2	2	6	1	0.000004	-0.000009
-4	-2	2	7	1	-0.000083	-0.000001
-4	-2	2	8	1	-0.000017	-0.000046
-4	-2	2	1	2	0.000391	-0.000018
-4	-2	2	2	2	0.000221	0.000000
-4	-2	2	3	2	0.000050	-0.000025
-4	-2	2	4	2	-0.001201	0.000007
-4	-2	2	5	2	0.000004	-0.000009
-4	-2	2	6	2	0.000000	0.000000
-4	-2	2	7	2	-0.000022	-0.000017
-4	-2	2	8	2	0.000000	-0.000012
-4	-2	2	1	3	0.000084	0.000101
-4	-2	2	2	3	0.000050	0.000025
-4	-2	2	3	3	0.001120	0.000000
-4	-2	2	4	3	-0.000120	0.000013
-4	-2	2	5	3	-0.000083	-0.000001
-4	-2	2	6	3	0.000022	0.000017
-4	-2	2	7	3	0.000000	0.000000
-4	-2	2	8	3	0.000027	0.000008
-4	-2	2	1	4	-0.000420	0.000005
-4	-2	2	2	4	-0.001201	-0.000007
-4	-2	2	3	4	-0.000120	-0.000013
-4	-2	2	4	4	0.000219	0.000000
-4	-2	2	5	4	-0.000017	-0.000046
-4	-2	2	6	4	0.000000	0.000012
-4	-2	2	7	4	-0.000027	-0.000008
-4	-2	2	8	4	0.000000	0.000000
-4	-2	2	1	5	0.000000	0.000000
-4	-2	2	2	5	-0.000004	-0.000009
-4	-2	2	3	5	0.000083	-0.000001
-4	-2	2	4	5	0.000017	-0.000046
-4	-2	2	5	5	-0.000373	0.000000
-4	-2	2	6	5	-0.000391	0.000018
-4	-2	2	7	5	-0.000084	-0.000101
-4	-2	2	8	5	0.000420	-0.000005
-4	-2	2	1	6	-0.000004	-0.000009
-4	-2	2	2	6	0.000000	0.000000
-4	-2	2	3	6	0.000022	-0.000017
-4	-2	2	4	6	0.000000	-0.000012
-4	-2	2	5	6	0.000391	0.000018
-4	-2	2	6	6	0.000221	0.000000
-4	-2	2	7	6	0.000050	0.000025
-4	-2	2	8	6	-0.001201	-0.000007
-4	-2	2	1	7	0.000083	-0.000001
-4	-2	2	2	7	-0.000022	0.000017
-4	-2	2	3	7	0.000000	0.000000
-4	-2	2	4	7	-0.000027	0.000008
-4	-2	2	5	7	0.000084	-0.000101
-4	-2	2	6	7	0.000050	-0.000025
-4	-2	2	7	7	0.001120	0.000000
-4	-2	2	8	7	-0.000120	-0.000013
-4	-2	2	1	8	0.000017	-0.000046
-4	-2	2	2	8	0.000000	0.000012
-4	-2	2	3	8	0.000027	-0.000008
-4	-2	2	4	8	0.000000	0.000000
-4	-2	2	5	8	-0.000420	-0.000005
-4	-2	2	6	8	-0.001201	0.000007
-4	-2	2	7	8	-0.000120	0.000013
-4	-2	2	8	8	0.000219	0.000000
-4	-2	3	1	1	-0.000645	0.000000
-4	-2	3	2	1	-0.000094	-0.000016
-4	-2	3	3	1	0.000046	-0.000088
-4	-2	3	4	1	0.000643	0.000036
-4	-2	3	5	1	0.000000	0.000000
-4	-2	3	6	1	-0.000044	0.000129
-4	-2	3	7	1	-0.000112	0.000006
-4	-2	3	8	1	-0.000009	-0.000011
-4	-2	3	1	2	0.000094	-0.000016
-4	-2	3	2	2	0.000352	0.000000
-4	-2	3	3	2	0.000064	-0.000111
-4	-2	3	4	2	-0.000370	-0.000008
-4	-2	3	5	2	-0.000044	0.000129
-4	-2	3	6	2	0.000000	0.000000
-4	-2	3	7	2	-0.000107	0.000016
-4	-2	3	8	2	0.000002	-0.000041
-4	-2	3	1	3	-0.000046	-0.000088
-4	-2	3	2	3	0.000064	0.000111
-4	-2	3	3	3	0.000436	0.000000
-4	-2	3	4	3	0.000057	0.000027
-4	-2	3	5	3	-0.000112	0.000006
-4	-2	3	6	3	0.000107	-0.000016
-4	-2	3	7	3	0.000000	0.000000
-4	-2	3	8	3	0.000028	0.000016
-4	-2	3	1	4	-0.000643	0.000036
-4	-2	3	2	4	-0.000370	0.000008
-4	-2	3	3	4	0.000057	-0.000027
-4	-2	3	4	4	0.000142	0.000000
-4	-2	3	5	4	-0.000009	-0.000011
-4	-2	3	6	4	-0.000002	0.000041
-4	-2	3	7	4	-0.000028	-0.000016
-4	-2	3	8	4	0.000000	0.000000
-4	-2	3	1	5	0.000000	0.000000
-4	-2	3	2	5	0.000044	0.000129
-4	-2	3	3	5	0.000112	0.000006
-4	-2	3	4	5	0.000009	-0.000011
-4	-2	3	5	5	-0.000645	0.000000
-4	-2	3	6	5	-0.000094	0.000016
-4	-2	3	7	5	0.000046	0.000088
-4	-2	3	8	5	0.000643	-0.000036
-4	-2	3	1	6	0.000044	0.000129
-4	-2	3	2	6	0.000000	0.000000
-4	-2	3	3	6	0.000107	0.000016
-4	-2	3	4	6	-0.000002	-0.000041
-4	-2	3	5	6	0.000094	0.000016
-4	-2	3	6	6	0.000352	0.000000
-4	-2	3	7	6	0.000064	0.000111
-4	-2	3	8	6	-0.000370	0.000008
-4	-2	3	1	7	0.000112	0.000006
-4	-2	3	2	7	-0.000107	-0.000016
-4	-2	3	3	7	0.000000	0.000000
-4	-2	3	4	7	-0.000028	0.000016
-4	-2	3	5	7	-0.000046	0.000088
-4	-2	3	6	7	0.000064	-0.000111
-4	-2	3	7	7	0.000436	0.000000
-4	-2	3	8	7	0.000057	-0.000027
-4	-2	3	1	8	0.000009	-0.000011
-4	-2	3	2	8	0.000002	0.000041
-4	-2	3	3	8	0.000028	-0.000016
-4	-2	3	4	8	0.000000	0.000000
-4	-2	3	5	8	-0.000643	-0.000036
-4	-2	3	6	8	-0.000370	-0.000008
-4	-2	3	7	8	0.000057	0.000027
-4	-2	3	8	8	0.000142	0.000000
-4	-2	4	1	1	-0.000524	0.000000
-4	-2	4	2	1	-0.000066	-0.000012
-4	-2	4	3	1	0.000059	-0.000244
-4	-2	4	4	1	0.001125	0.000007
-4	-2	4	5	1	0.000000	0.000000
-4	-2	4	6	1	-0.000058	0.000240
-4	-2	4	7	1	-0.000054	0.000011
-4	-2	4	8	1	-0.000006	0.000001
-4	-2	4	1	2	0.000066	-0.000012
-4	-2	4	2	2	0.000307	0.000000
-4	-2	4	3	2	-0.000018	-0.000056
-4	-2	4	4	2	-0.000053	-0.000015
-4	-2	4	5	2	-0.000058	0.000240
-4	-2	4	6	2	0.000000	0.000000
-4	-2	4	7	2	-0.000151	0.000060
-4	-2	4	8	2	0.000020	-0.000055
-4	-2	4	1	3	-0.000059	-0.000244
-4	-2	4	2	3	-0.000018	0.000056
-4	-2	4	3	3	0.000241	0.000000
-4	-2	4	4	3	0.000055	0.000027
-4	-2	4	5	3	-0.000054	0.000011
-4	-2	4	6	3	0.000151	-0.000060
-4	-2	4	7	3	0.000000	0.000000
-4	-2	4	8	3	0.000018	0.000000
-4	-2	4	1	4	-0.001125	0.000007
-4	-2	4	2	4	-0.000053	0.000015
-4	-2	4	3	4	0.000055	-0.000027
-4	-2	4	4	4	0.000069	0.000000
-4	-2	4	5	4	-0.000006	0.000001
-4	-2	4	6	4	-0.000020	0.000055
-4	-2	4	7	4	-0.000018	0.000000
-4	-2	4	8	4	0.000000	0.000000
-4	-2	4	1	5	0.000000	0.000000
-4	-2	4	2	5	0.000058	0.000240
-4	-2	4	3	5	0.000054	0.000011
-4	-2	4	4	5	0.000006	0.000001
-4	-2	4	5	5	-0.000524	0.000000
-4	-2	4	6	5	-0.000066	0.000012
-4	-2	4	7	5	0.000059	0.000244
-4	-2	4	8	5	0.001125	-0.000007
-4	-2	4	1	6	0.000058	0.000240
-4	-2	4	2	6	0.000000	0.000000
-4	-2	4	3	6	0.000151	0.000060
-4	-2	4	4	6	-0.000020	-0.000055
-4	-2	4	5	6	0.000066	0.000012
-4	-2	4	6	6	0.000307	0.000000
-4	-2	4	7	6	-0.000018	0.000056
-4	-2	4	8	6	-0.000053	0.000015
-4	-2	4	1	7	0.000054	0.000011
-4	-2	4	2	7	-0.000151	-0.000060
-4	-2	4	3	7	0.000000	0.000000
-4	-2	4	4	7	-0.000018	0.000000
-4	-2	4	5	7	-0.000059	0.000244
-4	-2	4	6	7	-0.000018	-0.000056
-4	-2	4	7	7	0.000241	0.000000
-4	-2	4	8	7	0.000055	-0.000027
-4	-2	4	1	8	0.000006	0.000001
-4	-2	4	2	8	0.000020	0.000055
-4	-2	4	3	8	0.000018	0.000000
-4	-2	4	4	8	0.000000	0.000000
-4	-2	4	5	8	-0.001125	-0.000007
-4	-2	4	6	8	-0.000053	-0.000015
-4	-2	4	7	8	0.000055	0.000027
-4	-2	4	8	8	0.000069	0.000000
-4	-1	-4	1	1	-0.001510	0.000000
-4	-1	-4	2	1	0.000392	0.000005
-4	-1	-4	3	1	0.000439	-0.000217
-4	-1	-4	4	1	0.001062	0.000016
-4	-1	-4	5	1	0.000000	0.000000
-4	-1	-4	6	1	0.000053	0.000217
-4	-1	-4	7	1	-0.000049	-0.000004
-4	-1	-4	8	1	0.000000	-0.000013
-4	-1	-4	1	2	-0.000392	0.000005
-4	-1	-4	2	2	0.001197	0.000000
-4	-1	-4	3	2	0.000065	0.000043
-4	-1	-4	4	2	0.000136	0.000042
-4	-1	-4	5	2	0.000053	0.000217
-4	-1	-4	6	2	0.000000	0.000000
-4	-1	-4	7	2	-0.000274	0.000046
-4	-1	-4	8	2	-0.000021	-0.000024
-4	-1	-4	1	3	-0.000439	-0.000217
-4	-1	-4	2	3	0.000065	-0.000043
-4	-1	-4	3	3	0.001198	0.000000
-4	-1	-4	4	3	0.000117	0.000025
-4	-1	-4	5	3	-0.000049	-0.000004
-4	-1	-4	6	3	0.000274	-0.000046
-4	-1	-4	7	3	0.000000	0.000000
-4	-1	-4	8	3	0.000023	-0.000042
-4	-1	-4	1	4	-0.001062	0.000016
-4	-1	-4	2	4	0.000136	-0.000042
-4	-1	-4	3	4	0.000117	-0.000025
-4	-1	-4	4	4	-0.000396	0.000000
-4	-1	-4	5	4	0.000000	-0.000013
-4	-1	-4	6	4	0.000021	0.000024
-4	-1	-4	7	4	-0.000023	0.000042
-4	-1	-4	8	4	0.000000	0.000000
-4	-1	-4	1	5	0.000000	0.000000
-4	-1	-4	2	5	-0.000053	0.000217
-4	-1	-4	3	5	0.000049	-0.000004
-4	-1	-4	4	5	0.000000	-0.000013
-4	-1	-4	5	5	-0.001510	0.000000
-4	-1	-4	6	5	0.000392	-0.000005
-4	-1	-4	7	5	0.000439	0.000217
-4	-1	-4	8	5	0.001062	-0.000016
-4	-1	-4	1	6	-0.000053	0.000217
-4	-1	-4	2	6	0.000000	0.000000
-4	-1	-4	3	6	0.000274	0.000046
-4	-1	-4	4	6	0.000021	-0.000024
-4	-1	-4	5	6	-0.000392	-0.000005
-4	-1	-4	6	6	0.001197	0.000000
-4	-1	-4	7	6	0.000065	-0.000043
-4	-1	-4	8	6	0.000136	-0.000042
-4	-1	-4	1	7	0.000049	-0.000004
-4	-1	-4	2	7	-0.000274	-0.000046
-4	-1	-4	3	7	0.000000	0.000000
-4	-1	-4	4	7	-0.000023	-0.000042
-4	-1	-4	5	7	-0.000439	0.000217
-4	-1	-4	6	7	0.000065	0.000043
-4	-1	-4	7	7	0.001198	0.000000
-4	-1	-4	8	7	0.000117	-0.000025
-4	-1	-4	1	8	0.000000	-0.000013
-4	-1	-4	2	8	-0.000021	0.000024
-4	-1	-4	3	8	0.000023	0.000042
-4	-1	-4	4	8	0.000000	0.000000
-4	-1	-4	5	8	-0.001062	-0.000016
-4	-1	-4	6	8	0.000136	0.000042
-4	-1	-4	7	8	0.000117	0.000025
-4	-1	-4	8	8	-0.000396	0.000000
-4	-1	-3	1	1	-0.001905	0.000000
-4	-1	-3	2	1	0.001075	0.000030
-4	-1	-3	3	1	0.000562	-0.000056
-4	-1	-3	4	1	0.000868	0.000042
-4	-1	-3	5	1	0.000000	0.000000
-4	-1	-3	6	1	0.000016	0.000095
-4	-1	-3	7	1	-0.000064	-0.000038
-4	-1	-3	8	1	-0.000007	0.000028
-4	-1	-3	1	2	-0.001075	0.000030
-4	-1	-3	2	2	0.001083	0.000000
-4	-1	-3	3	2	0.000228	0.000068
-4	-1	-3	4	2	0.000601	0.000074
-4	-1	-3	5	2	0.000016	0.000095
-4	-1	-3	6	2	0.000000	0.000000
-4	-1	-3	7	2	-0.000138	0.000044
-4	-1	-3	8	2	-0.000011	0.000005
-4	-1	-3	1	3	-0.000562	-0.000056
-4	-1	-3	2	3	0.000228	-0.000068
-4	-1	-3	3	3	0.001277	0.000000
-4	-1	-3	4	3	0.000124	-0.000003
-4	-1	-3	5	3	-0.000064	-0.000038
-4	-1	-3	6	3	0.000138	-0.000044
-4	-1	-3	7	3	0.000000	0.000000
-4	-1	-3	8	3	0.000033	-0.000050
-4	-1	-3	1	4	-0.000868	0.000042
-4	-1	-3	2	4	0.000601	-0.000074
-4	-1	-3	3	4	0.000124	0.000003
-4	-1	-3	4	4	-0.000333	0.000000
-4	-1	-3	5	4	-0.000007	0.000028
-4	-1	-3	6	4	0.000011	-0.000005
-4	-1	-3	7	4	-0.000033	0.000050
-4	-1	-3	8	4	0.000000	0.000000
-4	-1	-3	1	5	0.000000	0.000000
-4	-1	-3	2	5	-0.000016	0.000095
-4	-1	-3	3	5	0.000064	-0.000038
-4	-1	-3	4	5	0.000007	0.000028
-4	-1	-3	5	5	-0.001905	0.000000
-4	-1	-3	6	5	0.001075	-0.000030
-4	-1	-3	7	5	0.000562	0.000056
-4	-1	-3	8	5	0.000868	-0.000042
-4	-1	-3	1	6	-0.000016	0.000095
-4	-1	-3	2	6	0.000000	0.000000
-4	-1	-3	3	6	0.000138	0.000044
-4	-1	-3	4	6	0.000011	0.000005
-4	-1	-3	5	6	-0.001075	-0.000030
-4	-1	-3	6	6	0.001083	0.000000
-4	-1	-3	7	6	0.000228	-0.000068
-4	-1	-3	8	6	0.000601	-0.000074
-4	-1	-3	1	7	0.000064	-0.000038
-4	-1	-3	2	7	-0.000138	-0.000044
-4	-1	-3	3	7	0.000000	0.000000
-4	-1	-3	4	7	-0.000033	-0.000050
-4	-1	-3	5	7	-0.000562	0.000056
-4	-1	-3	6	7	0.000228	0.000068
-4	-1	-3	7	7	0.001277	0.000000
-4	-1	-3	8	7	0.000124	0.000003
-4	-1	-3	1	8	0.000007	0.000028
-4	-1	-3	2	8	-0.000011	-0.000005
-4	-1	-3	3	8	0.000033	0.000050
-4	-1	-3	4	8	0.000000	0.000000
-4	-1	-3	5	8	-0.000868	-0.000042
-4	-1	-3	6	8	0.000601	0.000074
-4	-1	-3	7	8	0.000124	-0.000003
-4	-1	-3	8	8	-0.000333	0.000000
-4	-1	-2	1	1	-0.001337	0.000000
-4	-1	-2	2	1	0.002588	0.000041
-4	-1	-2	3	1	0.000048	-0.000022
-4	-1	-2	4	1	0.000888	0.000068
-4	-1	-2	5	1	0.000000	0.000000
-4	-1	-2	6	1	-0.000021	-0.000058
-4	-1	-2	7	1	-0.000167	-0.000031
-4	-1	-2	8	1	0.000021	0.000097
-4	-1	-2	1	2	-0.002588	0.000041
-4	-1	-2	2	2	0.000626	0.000000
-4	-1	-2	3	2	0.000993	0.000030
-4	-1	-2	4	2	0.001713	0.000068
-4	-1	-2	5	2	-0.000021	-0.000058
-4	-1	-2	6	2	0.000000	0.000000
-4	-1	-2	7	2	0.000074	0.000004
-4	-1	-2	8	2	0.000010	0.000008
-4	-1	-2	1	3	-0.000048	-0.000022
-4	-1	-2	2	3	0.000993	-0.000030
-4	-1	-2	3	3	0.001601	0.000000
-4	-1	-2	4	3	0.000248	-0.000158
-4	-1	-2	5	3	-0.000167	-0.000031
-4	-1	-2	6	3	-0.000074	-0.000004
-4	-1	-2	7	3	0.000000	0.000000
-4	-1	-2	8	3	0.000046	-0.000084
-4	-1	-2	1	4	-0.000888	0.000068
-4	-1	-2	2	4	0.001713	-0.000068
-4	-1	-2	3	4	0.000248	0.000158
-4	-1	-2	4	4	-0.000414	0.000000
-4	-1	-2	5	4	0.000021	0.000097
-4	-1	-2	6	4	-0.000010	-0.000008
-4	-1	-2	7	4	-0.000046	0.000084
-4	-1	-2	8	4	0.000000	0.000000
-4	-1	-2	1	5	0.000000	0.000000
-4	-1	-2	2	5	0.000021	-0.000058
-4	-1	-2	3	5	0.000167	-0.000031
-4	-1	-2	4	5	-0.000021	0.000097
-4	-1	-2	5	5	-0.001337	0.000000
-4	-1	-2	6	5	0.002588	-0.000041
-4	-1	-2	7	5	0.000048	0.000022
-4	-1	-2	8	5	0.000888	-0.000068
-4	-1	-2	1	6	0.000021	-0.000058
-4	-1	-2	2	6	0.000000	0.000000
-4	-1	-2	3	6	-0.000074	0.000004
-4	-1	-2	4	6	-0.000010	0.000008
-4	-1	-2	5	6	-0.002588	-0.000041
-4	-1	-2	6	6	0.000626	0.000000
-4	-1	-2	7	6	0.000993	-0.000030
-4	-1	-2	8	6	0.001713	-0.000068
-4	-1	-2	1	7	0.000167	-0.000031
-4	-1	-2	2	7	0.000074	-0.000004
-4	-1	-2	3	7	0.000000	0.000000
-4	-1	-2	4	7	-0.000046	-0.000084
-4	-1	-2	5	7	-0.000048	0.000022
-4	-1	-2	6	7	0.000993	0.000030
-4	-1	-2	7	7	0.001601	0.000000
-4	-1	-2	8	7	0.000248	0.000158
-4	-1	-2	1	8	-0.000021	0.000097
-4	-1	-2	2	8	0.000010	-0.000008
-4	-1	-2	3	8	0.000046	0.000084
-4	-1	-2	4	8	0.000000	0.000000
-4	-1	-2	5	8	-0.000888	-0.000068
-4	-1	-2	6	8	0.001713	0.000068
-4	-1	-2	7	8	0.000248	-0.000158
-4	-1	-2	8	8	-0.000414	0.000000
-4	-1	-1	1	1	-0.005177	0.000000
-4	-1	-1	2	1	0.004576	0.000050
-4	-1	-1	3	1	0.001958	-0.000161
-4	-1	-1	4	1	0.004640	0.000046
-4	-1	-1	5	1	0.000000	0.000000
-4	-1	-1	6	1	0.000044	-0.000087
-4	-1	-1	7	1	-0.000159	0.000000
-4	-1	-1	8	1	0.000049	0.000087
-4	-1	-1	1	2	-0.004576	0.000050
-4	-1	-1	2	2	-0.001577	0.000000
-4	-1	-1	3	2	0.002669	0.000041
-4	-1	-1	4	2	0.002438	0.000003
-4	-1	-1	5	2	0.000044	-0.000087
-4	-1	-1	6	2	0.000000	0.000000
-4	-1	-1	7	2	0.000285	-0.000043
-4	-1	-1	8	2	-0.000003	-0.000010
-4	-1	-1	1	3	-0.001958	-0.000161
-4	-1	-1	2	3	0.002669	-0.000041
-4	-1	-1	3	3	0.008316	0.000000
-4	-1	-1	4	3	0.002706	-0.000285
-4	-1	-1	5	3	-0.000159	0.000000
-4	-1	-1	6	3	-0.000285	0.000043
-4	-1	-1	7	3	0.000000	0.000000
-4	-1	-1	8	3	-0.000042	-0.000043
-4	-1	-1	1	4	-0.004640	0.000046
-4	-1	-1	2	4	0.002438	-0.000003
-4	-1	-1	3	4	0.002706	0.000285
-4	-1	-1	4	4	-0.001543	0.000000
-4	-1	-1	5	4	0.000049	0.000087
-4	-1	-1	6	4	0.000003	0.000010
-4	-1	-1	7	4	0.000042	0.000043
-4	-1	-1	8	4	0.000000	0.000000
-4	-1	-1	1	5	0.000000	0.000000
-4	-1	-1	2	5	-0.000044	-0.000087
-4	-1	-1	3	5	0.000159	0.000000
-4	-1	-1	4	5	-0.000049	0.000087
-4	-1	-1	5	5	-0.005177	0.000000
-4	-1	-1	6	5	0.004576	-0.000050
-4	-1	-1	7	5	0.001958	0.000161
-4	-1	-1	8	5	0.004640	-0.000046
-4	-1	-1	1	6	-0.000044	-0.000087
-4	-1	-1	2	6	0.000000	0.000000
-4	-1	-1	3	6	-0.000285	-0.000043
-4	-1	-1	4	6	0.000003	-0.000010
-4	-1	-1	5	6	-0.004576	-0.000050
-4	-1	-1	6	6	-0.001577	0.000000
-4	-1	-1	7	6	0.002669	-0.000041
-4	-1	-1	8	6	0.002438	-0.000003
-4	-1	-1	1	7	0.000159	0.000000
-4	-1	-1	2	7	0.000285	0.000043
-4	-1	-1	3	7	0.000000	0.000000
-4	-1	-1	4	7	0.000042	-0.000043
-4	-1	-1	5	7	-0.001958	0.000161
-4	-1	-1	6	7	0.002669	0.000041
-4	-1	-1	7	7	0.008316	0.000000
-4	-1	-1	8	7	0.002706	0.000285
-4	-1	-1	1	8	-0.000049	0.000087
-4	-1	-1	2	8	-0.000003	0.000010
-4	-1	-1	3	8	-0.000042	0.000043
-4	-1	-1	4	8	0.000000	0.000000
-4	-1	-1	5	8	-0.004640	-0.000046
-4	-1	-1	6	8	0.002438	0.000003
-4	-1	-1	7	8	0.002706	-0.000285
-4	-1	-1	8	8	-0.001543	0.000000
-4	-1	0	1	1	-0.016902	0.000000
-4	-1	0	2	1	-0.000115	0.000013
-4	-1	0	3	1	0.009130	-0.000312
-4	-1	0	4	1	0.011185	0.000142
-4	-1	0	5	1	0.000000	0.000000
-4	-1	0	6	1	0.000213	0.000033
-4	-1	0	7	1	0.000038	-0.000008
-4	-1	0	8	1	0.000010	-0.000016
-4	-1	0	1	2	0.000115	0.000013
-4	-1	0	2	2	-0.003343	0.000000
-4	-1	0	3	2	0.000101	-0.000014
-4	-1	0	4	2	0.000024	-0.000004
-4	-1	0	5	2	0.000213	0.000033
-4	-1	0	6	2	0.000000	0.000000
-4	-1	0	7	2	0.000263	-0.000108
-4	-1	0	8	2	-0.000014	-0.000040
-4	-1	0	1	3	-0.009130	-0.000312
-4	-1	0	2	3	0.000101	0.000014
-4	-1	0	3	3	0.023167	0.000000
-4	-1	0	4	3	0.006816	0.000236
-4	-1	0	5	3	0.000038	-0.000008
-4	-1	0	6	3	-0.000263	0.000108
-4	-1	0	7	3	0.000000	0.000000
-4	-1	0	8	3	-0.000011	0.000004
-4	-1	0	1	4	-0.011185	0.000142
-4	-1	0	2	4	0.000024	0.000004
-4	-1	0	3	4	0.006816	-0.000236
-4	-1	0	4	4	-0.002000	0.000000
-4	-1	0	5	4	0.000010	-0.000016
-4	-1	0	6	4	0.000014	0.000040
-4	-1	0	7	4	0.000011	-0.000004
-4	-1	0	8	4	0.000000	0.000000
-4	-1	0	1	5	0.000000	0.000000
-4	-1	0	2	5	-0.000213	0.000033
-4	-1	0	3	5	-0.000038	-0.000008
-4	-1	0	4	5	-0.000010	-0.000016
-4	-1	0	5	5	-0.016902	0.000000
-4	-1	0	6	5	-0.000115	-0.000013
-4	-1	0	7	5	0.009130	0.000312
-4	-1	0	8	5	0.011185	-0.000142
-4	-1	0	1	6	-0.000213	0.000033
-4	-1	0	2	6	0.000000	0.000000
-4	-1	0	3	6	-0.000263	-0.000108
-4	-1	0	4	6	0.000014	-0.000040
-4	-1	0	5	6	0.000115	-0.000013
-4	-1	0	6	6	-0.003343	0.000000
-4	-1	0	7	6	0.000101	0.000014
-4	-1	0	8	6	0.000024	0.000004
-4	-1	0	1	7	-0.000038	-0.000008
-4	-1	0	2	7	0.000263	0.000108
-4	-1	0	3	7	0.000000	0.000000
-4	-1	0	4	7	0.000011	0.000004
-4	-1	0	5	7	-0.009130	0.000312
-4	-1	0	6	7	0.000101	-0.000014
-4	-1	0	7	7	0.023167	0.000000
-4	-1	0	8	7	0.006816	-0.000236
-4	-1	0	1	8	-0.000010	-0.000016
-4	-1	0	2	8	-0.000014	0.000040
-4	-1	0	3	8	-0.000011	-0.000004
-4	-1	0	4	8	0.000000	0.000000
-4	-1	0	5	8	-0.011185	-0.000142
-4	-1	0	6	8	0.000024	-0.000004
-4	-1	0	7	8	0.006816	0.000236
-4	-1	0	8	8	-0.002000	0.000000
-4	-1	1	1	1	-0.005141	0.000000
-4	-1	1	2	1	-0.004814	-0.000025
-4	-1	1	3	1	0.002328	-0.000174
-4	-1	1	4	1	0.004711	0.000047
-4	-1	1	5	1	0.000000	0.000000
-4	-1	1	6	1	0.000063	-0.000079
-4	-1	1	7	1	0.000181	0.000004
-4	-1	1	8	1	-0.000038	-0.000101
-4	-1	1	1	2	0.004814	-0.000025
-4	-1	1	2	2	-0.001589	0.000000
-4	-1	1	3	2	-0.002768	-0.000061
-4	-1	1	4	2	-0.002387	-0.000016
-4	-1	1	5	2	0.000063	-0.000079
-4	-1	1	6	2	0.000000	0.000000
-4	-1	1	7	2	0.000295	-0.000070
-4	-1	1	8	2	0.000001	-0.000017
-4	-1	1	1	3	-0.002328	-0.000174
-4	-1	1	2	3	-0.002768	0.000061
-4	-1	1	3	3	0.008493	0.000000
-4	-1	1	4	3	0.002822	-0.000262
-4	-1	1	5	3	0.000181	0.000004
-4	-1	1	6	3	-0.000295	0.000070
-4	-1	1	7	3	0.000000	0.000000
-4	-1	1	8	3	0.000053	0.000031
-4	-1	1	1	4	-0.004711	0.000047
-4	-1	1	2	4	-0.002387	0.000016
-4	-1	1	3	4	0.002822	0.000262
-4	-1	1	4	4	-0.001606	0.000000
-4	-1	1	5	4	-0.000038	-0.000101
-4	-1	1	6	4	-0.000001	0.000017
-4	-1	1	7	4	-0.000053	-0.000031
-4	-1	1	8	4	0.000000	0.000000
-4	-1	1	1	5	0.000000	0.000000
-4	-1	1	2	5	-0.000063	-0.000079
-4	-1	1	3	5	-0.000181	0.000004
-4	-1	1	4	5	0.000038	-0.000101
-4	-1	1	5	5	-0.005141	0.000000
-4	-1	1	6	5	-0.004814	0.000025
-4	-1	1	7	5	0.002328	0.000174
-4	-1	1	8	5	0.004711	-0.000047
-4	-1	1	1	6	-0.000063	-0.000079
-4	-1	1	2	6	0.000000	0.000000
-4	-1	1	3	6	-0.000295	-0.000070
-4	-1	1	4	6	-0.000001	-0.000017
-4	-1	1	5	6	0.004814	0.000025
-4	-1	1	6	6	-0.001589	0.000000
-4	-1	1	7	6	-0.002768	0.000061
-4	-1	1	8	6	-0.002387	0.000016
-4	-1	1	1	7	-0.000181	0.000004
-4	-1	1	2	7	0.000295	0.000070
-4	-1	1	3	7	0.000000	0.000000
-4	-1	1	4	7	-0.000053	0.000031
-4	-1	1	5	7	-0.002328	0.000174
-4	-1	1	6	7	-0.002768	-0.000061
-4	-1	1	7	7	0.008493	0.000000
-4	-1	1	8	7	0.002822	0.000262
-4	-1	1	1	8	0.000038	-0.000101
-4	-1	1	2	8	0.000001	0.000017
-4	-1	1	3	8	0.000053	-0.000031
-4	-1	1	4	8	0.000000	0.000000
-4	-1	1	5	8	-0.004711	-0.000047
-4	-1	1	6	8	-0.002387	-0.000016
-4	-1	1	7	8	0.002822	-0.000262
-4	-1	1	8	8	-0.001606	0.000000
-4	-1	2	1	1	-0.001320	0.000000
-4	-1	2	2	1	-0.002730	-0.000020
-4	-1	2	3	1	-0.000024	0.000000
-4	-1	2	4	1	0.000984	0.000054
-4	-1	2	5	1	0.000000	0.000000
-4	-1	2	6	1	-0.000010	-0.000048
-4	-1	2	7	1	0.000153	0.000030
-4	-1	2	8	1	-0.000014	-0.000098
-4	-1	2	1	2	0.002730	-0.000020
-4	-1	2	2	2	0.000689	0.000000
-4	-1	2	3	2	-0.001281	-0.000040
-4	-1	2	4	2	-0.001729	-0.000075
-4	-1	2	5	2	-0.000010	-0.000048
-4	-1	2	6	2	0.000000	0.000000
-4	-1	2	7	2	0.000120	-0.000026
-4	-1	2	8	2	0.000017	-0.000017
-4	-1	2	1	3	0.000024	0.000000
-4	-1	2	2	3	-0.001281	0.000040
-4	-1	2	3	3	0.001605	0.000000
-4	-1	2	4	3	0.000343	-0.000169
-4	-1	2	5	3	0.000153	0.000030
-4	-1	2	6	3	-0.000120	0.000026
-4	-1	2	7	3	0.000000	0.000000
-4	-1	2	8	3	-0.000031	0.000075
-4	-1	2	1	4	-0.000984	0.000054
-4	-1	2	2	4	-0.001729	0.000075
-4	-1	2	3	4	0.000343	0.000169
-4	-1	2	4	4	-0.000394	0.000000
-4	-1	2	5	4	-0.000014	-0.000098
-4	-1	2	6	4	-0.000017	0.000017
-4	-1	2	7	4	0.000031	-0.000075
-4	-1	2	8	4	0.000000	0.000000
-4	-1	2	1	5	0.000000	0.000000
-4	-1	2	2	5	0.000010	-0.000048
-4	-1	2	3	5	-0.000153	0.000030
-4	-1	2	4	5	0.000014	-0.000098
-4	-1	2	5	5	-0.001320	0.000000
-4	-1	2	6	5	-0.002730	0.000020
-4	-1	2	7	5	-0.000024	0.000000
-4	-1	2	8	5	0.000984	-0.000054
-4	-1	2	1	6	0.000010	-0.000048
-4	-1	2	2	6	0.000000	0.000000
-4	-1	2	3	6	-0.000120	-0.000026
-4	-1	2	4	6	-0.000017	-0.000017
-4	-1	2	5	6	0.002730	0.000020
-4	-1	2	6	6	0.000689	0.000000
-4	-1	2	7	6	-0.001281	0.000040
-4	-1	2	8	6	-0.001729	0.000075
-4	-1	2	1	7	-0.000153	0.000030
-4	-1	2	2	7	0.000120	0.000026
-4	-1	2	3	7	0.000000	0.000000
-4	-1	2	4	7	0.000031	0.000075
-4	-1	2	5	7	0.000024	0.000000
-4	-1	2	6	7	-0.001281	-0.000040
-4	-1	2	7	7	0.001605	0.000000
-4	-1	2	8	7	0.000343	0.000169
-4	-1	2	1	8	0.000014	-0.000098
-4	-1	2	2	8	0.000017	0.000017
-4	-1	2	3	8	-0.000031	-0.000075
-4	-1	2	4	8	0.000000	0.000000
-4	-1	2	5	8	-0.000984	-0.000054
-4	-1	2	6	8	-0.001729	-0.000075
-4	-1	2	7	8	0.000343	-0.000169
-4	-1	2	8	8	-0.000394	0.000000
-4	-1	3	1	1	-0.002004	0.000000
-4	-1	3	2	1	-0.001118	-0.000026
-4	-1	3	3	1	0.000444	-0.000061
-4	-1	3	4	1	0.000880	0.000049
-4	-1	3	5	1	0.000000	0.000000
-4	-1	3	6	1	0.000022	0.000102
-4	-1	3	7	1	0.000066	0.000036
-4	-1	3	8	1	0.000003	-0.000018
-4	-1	3	1	2	0.001118	-0.000026
-4	-1	3	2	2	0.001171	0.000000
-4	-1	3	3	2	-0.000396	-0.000069
-4	-1	3	4	2	-0.000593	-0.000068
-4	-1	3	5	2	0.000022	0.000102
-4	-1	3	6	2	0.000000	0.000000
-4	-1	3	7	2	-0.000091	0.000018
-4	-1	3	8	2	0.000000	-0.000024
-4	-1	3	1	3	-0.000444	-0.000061
-4	-1	3	2	3	-0.000396	0.000069
-4	-1	3	3	3	0.001134	0.000000
-4	-1	3	4	3	0.000074	-0.000016
-4	-1	3	5	3	0.000066	0.000036
-4	-1	3	6	3	0.000091	-0.000018
-4	-1	3	7	3	0.000000	0.000000
-4	-1	3	8	3	-0.000049	0.000080
-4	-1	3	1	4	-0.000880	0.000049
-4	-1	3	2	4	-0.000593	0.000068
-4	-1	3	3	4	0.000074	0.000016
-4	-1	3	4	4	-0.000233	0.000000
-4	-1	3	5	4	0.000003	-0.000018
-4	-1	3	6	4	0.000000	0.000024
-4	-1	3	7	4	0.000049	-0.000080
-4	-1	3	8	4	0.000000	0.000000
-4	-1	3	1	5	0.000000	0.000000
-4	-1	3	2	5	-0.000022	0.000102
-4	-1	3	3	5	-0.000066	0.000036
-4	-1	3	4	5	-0.000003	-0.000018
-4	-1	3	5	5	-0.002004	0.000000
-4	-1	3	6	5	-0.001118	0.000026
-4	-1	3	7	5	0.000444	0.000061
-4	-1	3	8	5	0.000880	-0.000049
-4	-1	3	1	6	-0.000022	0.000102
-4	-1	3	2	6	0.000000	0.000000
-4	-1	3	3	6	0.000091	0.000018
-4	-1	3	4	6	0.000000	-0.000024
-4	-1	3	5	6	0.001118	0.000026
-4	-1	3	6	6	0.001171	0.000000
-4	-1	3	7	6	-0.000396	0.000069
-4	-1	3	8	6	-0.000593	0.000068
-4	-1	3	1	7	-0.000066	0.000036
-4	-1	3	2	7	-0.000091	-0.000018
-4	-1	3	3	7	0.000000	0.000000
-4	-1	3	4	7	0.000049	0.000080
-4	-1	3	5	7	-0.000444	0.000061
-4	-1	3	6	7	-0.000396	-0.000069
-4	-1	3	7	7	0.001134	0.000000
-4	-1	3	8	7	0.000074	0.000016
-4	-1	3	1	8	-0.000003	-0.000018
-4	-1	3	2	8	0.000000	0.000024
-4	-1	3	3	8	-0.000049	-0.000080
-4	-1	3	4	8	0.000000	0.000000
-4	-1	3	5	8	-0.000880	-0.000049
-4	-1	3	6	8	-0.000593	-0.000068
-4	-1	3	7	8	0.000074	-0.000016
-4	-1	3	8	8	-0.000233	0.000000
-4	-1	4	1	1	-0.001552	0.000000
-4	-1	4	2	1	-0.000418	-0.000016
-4	-1	4	3	1	0.000450	-0.000236
-4	-1	4	4	1	0.001051	0.000035
-4	-1	4	5	1	0.000000	0.000000
-4	-1	4	6	1	0.000057	0.000219
-4	-1	4	7	1	0.000052	0.000011
-4	-1	4	8	1	-0.000013	0.000027
-4	-1	4	1	2	0.000418	-0.000016
-4	-1	4	2	2	0.001251	0.000000
-4	-1	4	3	2	-0.000224	-0.000019
-4	-1	4	4	2	-0.000140	-0.000039
-4	-1	4	5	2	0.000057	0.000219
-4	-1	4	6	2	0.000000	0.000000
-4	-1	4	7	2	-0.000265	0.000038
-4	-1	4	8	2	-0.000018	-0.000038
-4	-1	4	1	3	-0.000450	-0.000236
-4	-1	4	2	3	-0.000224	0.000019
-4	-1	4	3	3	0.001199	0.000000
-4	-1	4	4	3	0.000150	0.000027
-4	-1	4	5	3	0.000052	0.000011
-4	-1	4	6	3	0.000265	-0.000038
-4	-1	4	7	3	0.000000	0.000000
-4	-1	4	8	3	-0.000011	0.000033
-4	-1	4	1	4	-0.001051	0.000035
-4	-1	4	2	4	-0.000140	0.000039
-4	-1	4	3	4	0.000150	-0.000027
-4	-1	4	4	4	-0.000381	0.000000
-4	-1	4	5	4	-0.000013	0.000027
-4	-1	4	6	4	0.000018	0.000038
-4	-1	4	7	4	0.000011	-0.000033
-4	-1	4	8	4	0.000000	0.000000
-4	-1	4	1	5	0.000000	0.000000
-4	-1	4	2	5	-0.000057	0.000219
-4	-1	4	3	5	-0.000052	0.000011
-4	-1	4	4	5	0.000013	0.000027
-4	-1	4	5	5	-0.001552	0.000000
-4	-1	4	6	5	-0.000418	0.000016
-4	-1	4	7	5	0.000450	0.000236
-4	-1	4	8	5	0.001051	-0.000035
-4	-1	4	1	6	-0.000057	0.000219
-4	-1	4	2	6	0.000000	0.000000
-4	-1	4	3	6	0.000265	0.000038
-4	-1	4	4	6	0.000018	-0.000038
-4	-1	4	5	6	0.000418	0.000016
-4	-1	4	6	6	0.001251	0.000000
-4	-1	4	7	6	-0.000224	0.000019
-4	-1	4	8	6	-0.000140	0.000039
-4	-1	4	1	7	-0.000052	0.000011
-4	-1	4	2	7	-0.000265	-0.000038
-4	-1	4	3	7	0.000000	0.000000
-4	-1	4	4	7	0.000011	0.000033
-4	-1	4	5	7	-0.000450	0.000236
-4	-1	4	6	7	-0.000224	-0.000019
-4	-1	4	7	7	0.001199	0.000000
-4	-1	4	8	7	0.000150	-0.000027
-4	-1	4	1	8	0.000013	0.000027
-4	-1	4	2	8	-0.000018	0.000038
-4	-1	4	3	8	-0.000011	-0.000033
-4	-1	4	4	8	0.000000	0.000000
-4	-1	4	5	8	-0.001051	-0.000035
-4	-1	4	6	8	-0.000140	-0.000039
-4	-1	4	7	8	0.000150	0.000027
-4	-1	4	8	8	-0.000381	0.000000
-4	0	-4	1	1	-0.002495	0.000000
-4	0	-4	2	1	0.000644	-0.000006
-4	0	-4	3	1	0.000647	0.000012
-4	0	-4	4	1	0.000021	0.000024
-4	0	-4	5	1	0.000000	0.000000
-4	0	-4	6	1	0.000092	-0.000012
-4	0	-4	7	1	-0.000091	0.000007
-4	0	-4	8	1	0.000001	-0.000024
-4	0	-4	1	2	-0.000644	-0.000006
-4	0	-4	2	2	0.001492	0.000000
-4	0	-4	3	2	0.000181	0.000006
-4	0	-4	4	2	0.000062	0.000046
-4	0	-4	5	2	0.000092	-0.000012
-4	0	-4	6	2	0.000000	0.000000
-4	0	-4	7	2	-0.000261	0.000008
-4	0	-4	8	2	0.000001	-0.000017
-4	0	-4	1	3	-0.000647	0.000012
-4	0	-4	2	3	0.000181	-0.000006
-4	0	-4	3	3	0.001496	0.000000
-4	0	-4	4	3	0.000022	0.000018
-4	0	-4	5	3	-0.000091	0.000007
-4	0	-4	6	3	0.000261	-0.000008
-4	0	-4	7	3	0.000000	0.000000
-4	0	-4	8	3	0.000002	-0.000045
-4	0	-4	1	4	-0.000021	0.000024
-4	0	-4	2	4	0.000062	-0.000046
-4	0	-4	3	4	0.000022	-0.000018
-4	0	-4	4	4	-0.000686	0.000000
-4	0	-4	5	4	0.000001	-0.000024
-4	0	-4	6	4	-0.000001	0.000017
-4	0	-4	7	4	-0.000002	0.000045
-4	0	-4	8	4	0.000000	0.000000
-4	0	-4	1	5	0.000000	0.000000
-4	0	-4	2	5	-0.000092	-0.000012
-4	0	-4	3	5	0.000091	0.000007
-4	0	-4	4	5	-0.000001	-0.000024
-4	0	-4	5	5	-0.002495	0.000000
-4	0	-4	6	5	0.000644	0.000006
-4	0	-4	7	5	0.000647	-0.000012
-4	0	-4	8	5	0.000021	-0.000024
-4	0	-4	1	6	-0.000092	-0.000012
-4	0	-4	2	6	0.000000	0.000000
-4	0	-4	3	6	0.000261	0.000008
-4	0	-4	4	6	-0.000001	-0.000017
-4	0	-4	5	6	-0.000644	0.000006
-4	0	-4	6	6	0.001492	0.000000
-4	0	-4	7	6	0.000181	-0.000006
-4	0	-4	8	6	0.000062	-0.000046
-4	0	-4	1	7	0.000091	0.000007
-4	0	-4	2	7	-0.000261	-0.000008
-4	0	-4	3	7	0.000000	0.000000
-4	0	-4	4	7	-0.000002	-0.000045
-4	0	-4	5	7	-0.000647	-0.000012
-4	0	-4	6	7	0.000181	0.000006
-4	0	-4	7	7	0.001496	0.000000
-4	0	-4	8	7	0.000022	-0.000018
-4	0	-4	1	8	-0.000001	-0.000024
-4	0	-4	2	8	0.000001	0.000017
-4	0	-4	3	8	0.000002	0.000045
-4	0	-4	4	8	0.000000	0.000000
-4	0	-4	5	8	-0.000021	-0.000024
-4	0	-4	6	8	0.000062	0.000046
-4	0	-4	7	8	0.000022	0.000018
-4	0	-4	8	8	-0.000686	0.000000
-4	0	-3	1	1	-0.003617	0.000000
-4	0	-3	2	1	0.002134	-0.000001
-4	0	-3	3	1	0.001184	0.000009
-4	0	-3	4	1	0.000058	0.000041
-4	0	-3	5	1	0.000000	0.000000
-4	0	-3	6	1	0.000070	0.000000
-4	0	-3	7	1	-0.000224	0.000008
-4	0	-3	8	1	0.000009	0.000017
-4	0	-3	1	2	-0.002134	-0.000001
-4	0	-3	2	2	0.001860	0.000000
-4	0	-3	3	2	0.000863	0.000004
-4	0	-3	4	2	0.000082	0.000100
-4	0	-3	5	2	0.000070	0.000000
-4	0	-3	6	2	0.000000	0.000000
-4	0	-3	7	2	-0.000137	0.000010
-4	0	-3	8	2	-0.000004	0.000005
-4	0	-3	1	3	-0.001184	0.000009
-4	0	-3	2	3	0.000863	-0.000004
-4	0	-3	3	3	0.002251	0.000000
-4	0	-3	4	3	-0.000038	-0.000029
-4	0	-3	5	3	-0.000224	0.000008
-4	0	-3	6	3	0.000137	-0.000010
-4	0	-3	7	3	0.000000	0.000000
-4	0	-3	8	3	-0.000014	-0.000093
-4	0	-3	1	4	-0.000058	0.000041
-4	0	-3	2	4	0.000082	-0.000100
-4	0	-3	3	4	-0.000038	0.000029
-4	0	-3	4	4	-0.000621	0.000000
-4	0	-3	5	4	0.000009	0.000017
-4	0	-3	6	4	0.000004	-0.000005
-4	0	-3	7	4	0.000014	0.000093
-4	0	-3	8	4	0.000000	0.000000
-4	0	-3	1	5	0.000000	0.000000
-4	0	-3	2	5	-0.000070	0.000000
-4	0	-3	3	5	0.000224	0.000008
-4	0	-3	4	5	-0.000009	0.000017
-4	0	-3	5	5	-0.003617	0.000000
-4	0	-3	6	5	0.002134	0.000001
-4	0	-3	7	5	0.001184	-0.000009
-4	0	-3	8	5	0.000058	-0.000041
-4	0	-3	1	6	-0.000070	0.000000
-4	0	-3	2	6	0.000000	0.000000
-4	0	-3	3	6	0.000137	0.000010
-4	0	-3	4	6	0.000004	0.000005
-4	0	-3	5	6	-0.002134	0.000001
-4	0	-3	6	6	0.001860	0.000000
-4	0	-3	7	6	0.000863	-0.000004
-4	0	-3	8	6	0.000082	-0.000100
-4	0	-3	1	7	0.000224	0.000008
-4	0	-3	2	7	-0.000137	-0.000010
-4	0	-3	3	7	0.000000	0.000000
-4	0	-3	4	7	0.000014	-0.000093
-4	0	-3	5	7	-0.001184	-0.000009
-4	0	-3	6	7	0.000863	0.000004
-4	0	-3	7	7	0.002251	0.000000
-4	0	-3	8	7	-0.000038	0.000029
-4	0	-3	1	8	-0.000009	0.000017
-4	0	-3	2	8	-0.000004	-0.000005
-4	0	-3	3	8	-0.000014	0.000093
-4	0	-3	4	8	0.000000	0.000000
-4	0	-3	5	8	-0.000058	-0.000041
-4	0	-3	6	8	0.000082	0.000100
-4	0	-3	7	8	-0.000038	-0.000029
-4	0	-3	8	8	-0.000621	0.000000
-4	0	-2	1	1	-0.004221	0.000000
-4	0	-2	2	1	0.006140	0.000007
-4	0	-2	3	1	0.000761	-0.000002
-4	0	-2	4	1	-0.000007	0.000070
-4	0	-2	5	1	0.000000	0.000000
-4	0	-2	6	1	-0.000039	0.000008
-4	0	-2	7	1	-0.000418	-0.000002
-4	0	-2	8	1	0.000003	0.000104
-4	0	-2	1	2	-0.006140	0.000007
-4	0	-2	2	2	0.001636	0.000000
-4	0	-2	3	2	0.003120	0.000013
-4	0	-2	4	2	0.000075	0.000132
-4	0	-2	5	2	-0.000039	0.000008
-4	0	-2	6	2	0.000000	0.000000
-4	0	-2	7	2	0.000015	0.000009
[...]
4	3	3	3	3	0.000137	0.000000
4	3	3	4	3	-0.000095	0.000030
4	3	3	5	3	0.000013	0.000000
4	3	3	6	3	0.000032	-0.000031
4	3	3	7	3	0.000000	0.000000
4	3	3	8	3	-0.000101	0.000030
4	3	3	1	4	0.000140	-0.000028
4	3	3	2	4	-0.000106	0.000022
4	3	3	3	4	-0.000095	-0.000030
4	3	3	4	4	0.000206	0.000000
4	3	3	5	4	-0.000007	0.000033
4	3	3	6	4	-0.000022	0.000027
4	3	3	7	4	0.000101	-0.000030
4	3	3	8	4	0.000000	0.000000
4	3	3	1	5	0.000000	0.000000
4	3	3	2	5	0.000028	-0.000033
4	3	3	3	5	-0.000013	0.000000
4	3	3	4	5	0.000007	0.000033
4	3	3	5	5	-0.000691	0.000000
4	3	3	6	5	-0.000139	0.000007
4	3	3	7	5	-0.000106	-0.000013
4	3	3	8	5	-0.000140	0.000028
4	3	3	1	6	0.000028	-0.000033
4	3	3	2	6	0.000000	0.000000
4	3	3	3	6	0.000032	0.000031
4	3	3	4	6	-0.000022	-0.000027
4	3	3	5	6	0.000139	0.000007
4	3	3	6	6	0.000214	0.000000
4	3	3	7	6	-0.000094	-0.000101
4	3	3	8	6	-0.000106	0.000022
4	3	3	1	7	-0.000013	0.000000
4	3	3	2	7	-0.000032	-0.000031
4	3	3	3	7	0.000000	0.000000
4	3	3	4	7	0.000101	0.000030
4	3	3	5	7	0.000106	-0.000013
4	3	3	6	7	-0.000094	0.000101
4	3	3	7	7	0.000137	0.000000
4	3	3	8	7	-0.000095	-0.000030
4	3	3	1	8	0.000007	0.000033
4	3	3	2	8	0.000022	0.000027
4	3	3	3	8	-0.000101	-0.000030
4	3	3	4	8	0.000000	0.000000
4	3	3	5	8	0.000140	0.000028
4	3	3	6	8	-0.000106	-0.000022
4	3	3	7	8	-0.000095	0.000030
4	3	3	8	8	0.000206	0.000000
4	3	4	1	1	-0.000877	0.000000
4	3	4	2	1	0.000017	0.000002
4	3	4	3	1	0.000009	0.000111
4	3	4	4	1	-0.000611	0.000000
4	3	4	5	1	0.000000	0.000000
4	3	4	6	1	-0.000001	-0.000111
4	3	4	7	1	-0.000001	-0.000002
4	3	4	8	1	0.000000	-0.000001
4	3	4	1	2	-0.000017	0.000002
4	3	4	2	2	0.000301	0.000000
4	3	4	3	2	-0.000081	0.000038
4	3	4	4	2	-0.000123	-0.000015
4	3	4	5	2	-0.000001	-0.000111
4	3	4	6	2	0.000000	0.000000
4	3	4	7	2	-0.000035	0.000039
4	3	4	8	2	0.000039	-0.000032
4	3	4	1	3	-0.000009	0.000111
4	3	4	2	3	-0.000081	-0.000038
4	3	4	3	3	0.000295	0.000000
4	3	4	4	3	-0.000121	0.000031
4	3	4	5	3	-0.000001	-0.000002
4	3	4	6	3	0.000035	-0.000039
4	3	4	7	3	0.000000	0.000000
4	3	4	8	3	-0.000039	0.000015
4	3	4	1	4	0.000611	0.000000
4	3	4	2	4	-0.000123	0.000015
4	3	4	3	4	-0.000121	-0.000031
4	3	4	4	4	0.000328	0.000000
4	3	4	5	4	0.000000	-0.000001
4	3	4	6	4	-0.000039	0.000032
4	3	4	7	4	0.000039	-0.000015
4	3	4	8	4	0.000000	0.000000
4	3	4	1	5	0.000000	0.000000
4	3	4	2	5	0.000001	-0.000111
4	3	4	3	5	0.000001	-0.000002
4	3	4	4	5	0.000000	-0.000001
4	3	4	5	5	-0.000877	0.000000
4	3	4	6	5	0.000017	-0.000002
4	3	4	7	5	0.000009	-0.000111
4	3	4	8	5	-0.000611	0.000000
4	3	4	1	6	0.000001	-0.000111
4	3	4	2	6	0.000000	0.000000
4	3	4	3	6	0.000035	0.000039
4	3	4	4	6	-0.000039	-0.000032
4	3	4	5	6	-0.000017	-0.000002
4	3	4	6	6	0.000301	0.000000
4	3	4	7	6	-0.000081	-0.000038
4	3	4	8	6	-0.000123	0.000015
4	3	4	1	7	0.000001	-0.000002
4	3	4	2	7	-0.000035	-0.000039
4	3	4	3	7	0.000000	0.000000
4	3	4	4	7	0.000039	0.000015
4	3	4	5	7	-0.000009	-0.000111
4	3	4	6	7	-0.000081	0.000038
4	3	4	7	7	0.000295	0.000000
4	3	4	8	7	-0.000121	-0.000031
4	3	4	1	8	0.000000	-0.000001
4	3	4	2	8	0.000039	0.000032
4	3	4	3	8	-0.000039	-0.000015
4	3	4	4	8	0.000000	0.000000
4	3	4	5	8	0.000611	0.000000
4	3	4	6	8	-0.000123	-0.000015
4	3	4	7	8	-0.000121	0.000031
4	3	4	8	8	0.000328	0.000000
4	4	-4	1	1	-0.001792	0.000000
4	4	-4	2	1	0.000260	0.000000
4	4	-4	3	1	-0.000229	0.000022
4	4	-4	4	1	-0.000226	-0.000022
4	4	-4	5	1	0.000000	0.000000
4	4	-4	6	1	-0.000033	-0.000033
4	4	-4	7	1	-0.000021	-0.000007
4	4	-4	8	1	-0.000007	-0.000021
4	4	-4	1	2	-0.000260	0.000000
4	4	-4	2	2	0.000411	0.000000
4	4	-4	3	2	0.000009	-0.000013
4	4	-4	4	2	0.000008	0.000013
4	4	-4	5	2	-0.000033	-0.000033
4	4	-4	6	2	0.000000	0.000000
4	4	-4	7	2	0.000017	0.000011
4	4	-4	8	2	0.000011	0.000016
4	4	-4	1	3	0.000229	0.000022
4	4	-4	2	3	0.000009	0.000013
4	4	-4	3	3	0.000362	0.000000
4	4	-4	4	3	-0.000028	-0.000025
4	4	-4	5	3	-0.000021	-0.000007
4	4	-4	6	3	-0.000017	-0.000011
4	4	-4	7	3	0.000000	0.000000
4	4	-4	8	3	0.000018	-0.000019
4	4	-4	1	4	0.000226	-0.000022
4	4	-4	2	4	0.000008	-0.000013
4	4	-4	3	4	-0.000028	0.000025
4	4	-4	4	4	0.000362	0.000000
4	4	-4	5	4	-0.000007	-0.000021
4	4	-4	6	4	-0.000011	-0.000016
4	4	-4	7	4	-0.000018	0.000019
4	4	-4	8	4	0.000000	0.000000
4	4	-4	1	5	0.000000	0.000000
4	4	-4	2	5	0.000033	-0.000033
4	4	-4	3	5	0.000021	-0.000007
4	4	-4	4	5	0.000007	-0.000021
4	4	-4	5	5	-0.001792	0.000000
4	4	-4	6	5	0.000260	0.000000
4	4	-4	7	5	-0.000229	-0.000022
4	4	-4	8	5	-0.000226	0.000022
4	4	-4	1	6	0.000033	-0.000033
4	4	-4	2	6	0.000000	0.000000
4	4	-4	3	6	-0.000017	0.000011
4	4	-4	4	6	-0.000011	0.000016
4	4	-4	5	6	-0.000260	0.000000
4	4	-4	6	6	0.000411	0.000000
4	4	-4	7	6	0.000009	0.000013
4	4	-4	8	6	0.000008	-0.000013
4	4	-4	1	7	0.000021	-0.000007
4	4	-4	2	7	0.000017	-0.000011
4	4	-4	3	7	0.000000	0.000000
4	4	-4	4	7	-0.000018	-0.000019
4	4	-4	5	7	0.000229	-0.000022
4	4	-4	6	7	0.000009	-0.000013
4	4	-4	7	7	0.000362	0.000000
4	4	-4	8	7	-0.000028	0.000025
4	4	-4	1	8	0.000007	-0.000021
4	4	-4	2	8	0.000011	-0.000016
4	4	-4	3	8	0.000018	0.000019
4	4	-4	4	8	0.000000	0.000000
4	4	-4	5	8	0.000226	0.000022
4	4	-4	6	8	0.000008	0.000013
4	4	-4	7	8	-0.000028	-0.000025
4	4	-4	8	8	0.000362	0.000000
4	4	-3	1	1	-0.000922	0.000000
4	4	-3	2	1	0.000667	0.000000
4	4	-3	3	1	-0.000008	-0.000024
4	4	-3	4	1	-0.000008	0.000024
4	4	-3	5	1	0.000000	0.000000
4	4	-3	6	1	0.000000	0.000000
4	4	-3	7	1	-0.000120	-0.000002
4	4	-3	8	1	-0.000002	-0.000120
4	4	-3	1	2	-0.000667	0.000000
4	4	-3	2	2	0.000299	0.000000
4	4	-3	3	2	0.000109	-0.000038
4	4	-3	4	2	0.000108	0.000039
4	4	-3	5	2	0.000000	0.000000
4	4	-3	6	2	0.000000	0.000000
4	4	-3	7	2	-0.000018	0.000014
4	4	-3	8	2	0.000014	-0.000018
4	4	-3	1	3	0.000008	-0.000024
4	4	-3	2	3	0.000109	0.000038
4	4	-3	3	3	0.000226	0.000000
4	4	-3	4	3	-0.000059	0.000038
4	4	-3	5	3	-0.000120	-0.000002
4	4	-3	6	3	0.000018	-0.000014
4	4	-3	7	3	0.000000	0.000000
4	4	-3	8	3	0.000052	-0.000053
4	4	-3	1	4	0.000008	0.000024
4	4	-3	2	4	0.000108	-0.000039
4	4	-3	3	4	-0.000059	-0.000038
4	4	-3	4	4	0.000227	0.000000
4	4	-3	5	4	-0.000002	-0.000120
4	4	-3	6	4	-0.000014	0.000018
4	4	-3	7	4	-0.000052	0.000053
4	4	-3	8	4	0.000000	0.000000
4	4	-3	1	5	0.000000	0.000000
4	4	-3	2	5	0.000000	0.000000
4	4	-3	3	5	0.000120	-0.000002
4	4	-3	4	5	0.000002	-0.000120
4	4	-3	5	5	-0.000922	0.000000
4	4	-3	6	5	0.000667	0.000000
4	4	-3	7	5	-0.000008	0.000024
4	4	-3	8	5	-0.000008	-0.000024
4	4	-3	1	6	0.000000	0.000000
4	4	-3	2	6	0.000000	0.000000
4	4	-3	3	6	0.000018	0.000014
4	4	-3	4	6	-0.000014	-0.000018
4	4	-3	5	6	-0.000667	0.000000
4	4	-3	6	6	0.000299	0.000000
4	4	-3	7	6	0.000109	0.000038
4	4	-3	8	6	0.000108	-0.000039
4	4	-3	1	7	0.000120	-0.000002
4	4	-3	2	7	-0.000018	-0.000014
4	4	-3	3	7	0.000000	0.000000
4	4	-3	4	7	-0.000052	-0.000053
4	4	-3	5	7	0.000008	0.000024
4	4	-3	6	7	0.000109	-0.000038
4	4	-3	7	7	0.000226	0.000000
4	4	-3	8	7	-0.000059	-0.000038
4	4	-3	1	8	0.000002	-0.000120
4	4	-3	2	8	0.000014	0.000018
4	4	-3	3	8	0.000052	0.000053
4	4	-3	4	8	0.000000	0.000000
4	4	-3	5	8	0.000008	-0.000024
4	4	-3	6	8	0.000108	0.000039
4	4	-3	7	8	-0.000059	0.000038
4	4	-3	8	8	0.000227	0.000000
4	4	-2	1	1	-0.000551	0.000000
4	4	-2	2	1	0.001104	0.000000
4	4	-2	3	1	-0.000040	-0.000064
4	4	-2	4	1	-0.000040	0.000065
4	4	-2	5	1	0.000000	0.000000
4	4	-2	6	1	0.000015	0.000014
4	4	-2	7	1	-0.000232	0.000009
4	4	-2	8	1	0.000009	-0.000232
4	4	-2	1	2	-0.001104	0.000000
4	4	-2	2	2	0.000021	0.000000
4	4	-2	3	2	0.000014	-0.000019
4	4	-2	4	2	0.000013	0.000019
4	4	-2	5	2	0.000015	0.000014
4	4	-2	6	2	0.000000	0.000000
4	4	-2	7	2	-0.000023	-0.000013
4	4	-2	8	2	-0.000013	-0.000023
4	4	-2	1	3	0.000040	-0.000064
4	4	-2	2	3	0.000014	0.000019
4	4	-2	3	3	0.000253	0.000000
4	4	-2	4	3	-0.000044	0.000159
4	4	-2	5	3	-0.000232	0.000009
4	4	-2	6	3	0.000023	0.000013
4	4	-2	7	3	0.000000	0.000000
4	4	-2	8	3	0.000053	-0.000054
4	4	-2	1	4	0.000040	0.000065
4	4	-2	2	4	0.000013	-0.000019
4	4	-2	3	4	-0.000044	-0.000159
4	4	-2	4	4	0.000254	0.000000
4	4	-2	5	4	0.000009	-0.000232
4	4	-2	6	4	0.000013	0.000023
4	4	-2	7	4	-0.000053	0.000054
4	4	-2	8	4	0.000000	0.000000
4	4	-2	1	5	0.000000	0.000000
4	4	-2	2	5	-0.000015	0.000014
4	4	-2	3	5	0.000232	0.000009
4	4	-2	4	5	-0.000009	-0.000232
4	4	-2	5	5	-0.000551	0.000000
4	4	-2	6	5	0.001104	0.000000
4	4	-2	7	5	-0.000040	0.000064
4	4	-2	8	5	-0.000040	-0.000065
4	4	-2	1	6	-0.000015	0.000014
4	4	-2	2	6	0.000000	0.000000
4	4	-2	3	6	0.000023	-0.000013
4	4	-2	4	6	0.000013	-0.000023
4	4	-2	5	6	-0.001104	0.000000
4	4	-2	6	6	0.000021	0.000000
4	4	-2	7	6	0.000014	0.000019
4	4	-2	8	6	0.000013	-0.000019
4	4	-2	1	7	0.000232	0.000009
4	4	-2	2	7	-0.000023	0.000013
4	4	-2	3	7	0.000000	0.000000
4	4	-2	4	7	-0.000053	-0.000054
4	4	-2	5	7	0.000040	0.000064
4	4	-2	6	7	0.000014	-0.000019
4	4	-2	7	7	0.000253	0.000000
4	4	-2	8	7	-0.000044	-0.000159
4	4	-2	1	8	-0.000009	-0.000232
4	4	-2	2	8	-0.000013	0.000023
4	4	-2	3	8	0.000053	0.000054
4	4	-2	4	8	0.000000	0.000000
4	4	-2	5	8	0.000040	-0.000065
4	4	-2	6	8	0.000013	0.000019
4	4	-2	7	8	-0.000044	0.000159
4	4	-2	8	8	0.000254	0.000000
4	4	-1	1	1	-0.001575	0.000000
4	4	-1	2	1	0.001046	0.000000
4	4	-1	3	1	-0.000380	0.000038
4	4	-1	4	1	-0.000378	-0.000038
4	4	-1	5	1	0.000000	0.000000
4	4	-1	6	1	-0.000006	-0.000006
4	4	-1	7	1	-0.000221	0.000006
4	4	-1	8	1	0.000006	-0.000221
4	4	-1	1	2	-0.001046	0.000000
4	4	-1	2	2	-0.000431	0.000000
4	4	-1	3	2	-0.000056	0.000014
4	4	-1	4	2	-0.000056	-0.000014
4	4	-1	5	2	-0.000006	-0.000006
4	4	-1	6	2	0.000000	0.000000
4	4	-1	7	2	-0.000017	-0.000047
4	4	-1	8	2	-0.000047	-0.000016
4	4	-1	1	3	0.000380	0.000038
4	4	-1	2	3	-0.000056	-0.000014
4	4	-1	3	3	0.001094	0.000000
4	4	-1	4	3	0.000236	0.000251
4	4	-1	5	3	-0.000221	0.000006
4	4	-1	6	3	0.000017	0.000047
4	4	-1	7	3	0.000000	0.000000
4	4	-1	8	3	0.000019	-0.000019
4	4	-1	1	4	0.000378	-0.000038
4	4	-1	2	4	-0.000056	0.000014
4	4	-1	3	4	0.000236	-0.000251
4	4	-1	4	4	0.001088	0.000000
4	4	-1	5	4	0.000006	-0.000221
4	4	-1	6	4	0.000047	0.000016
4	4	-1	7	4	-0.000019	0.000019
4	4	-1	8	4	0.000000	0.000000
4	4	-1	1	5	0.000000	0.000000
4	4	-1	2	5	0.000006	-0.000006
4	4	-1	3	5	0.000221	0.000006
4	4	-1	4	5	-0.000006	-0.000221
4	4	-1	5	5	-0.001575	0.000000
4	4	-1	6	5	0.001046	0.000000
4	4	-1	7	5	-0.000380	-0.000038
4	4	-1	8	5	-0.000378	0.000038
4	4	-1	1	6	0.000006	-0.000006
4	4	-1	2	6	0.000000	0.000000
4	4	-1	3	6	0.000017	-0.000047
4	4	-1	4	6	0.000047	-0.000016
4	4	-1	5	6	-0.001046	0.000000
4	4	-1	6	6	-0.000431	0.000000
4	4	-1	7	6	-0.000056	-0.000014
4	4	-1	8	6	-0.000056	0.000014
4	4	-1	1	7	0.000221	0.000006
4	4	-1	2	7	-0.000017	0.000047
4	4	-1	3	7	0.000000	0.000000
4	4	-1	4	7	-0.000019	-0.000019
4	4	-1	5	7	0.000380	-0.000038
4	4	-1	6	7	-0.000056	0.000014
4	4	-1	7	7	0.001094	0.000000
4	4	-1	8	7	0.000236	-0.000251
4	4	-1	1	8	-0.000006	-0.000221
4	4	-1	2	8	-0.000047	0.000016
4	4	-1	3	8	0.000019	0.000019
4	4	-1	4	8	0.000000	0.000000
4	4	-1	5	8	0.000378	0.000038
4	4	-1	6	8	-0.000056	-0.000014
4	4	-1	7	8	0.000236	0.000251
4	4	-1	8	8	0.001088	0.000000
4	4	0	1	1	-0.002496	0.000000
4	4	0	2	1	-0.000015	0.000000
4	4	0	3	1	-0.000648	0.000091
4	4	0	4	1	-0.000644	-0.000092
4	4	0	5	1	0.000000	0.000000
4	4	0	6	1	-0.000024	-0.000024
4	4	0	7	1	-0.000012	0.000007
4	4	0	8	1	0.000007	-0.000013
4	4	0	1	2	0.000015	0.000000
4	4	0	2	2	-0.000686	0.000000
4	4	0	3	2	0.000020	0.000002
4	4	0	4	2	0.000020	-0.000002
4	4	0	5	2	-0.000024	-0.000024
4	4	0	6	2	0.000000	0.000000
4	4	0	7	2	-0.000018	-0.000045
4	4	0	8	2	-0.000046	-0.000017
4	4	0	1	3	0.000648	0.000091
4	4	0	2	3	0.000020	-0.000002
4	4	0	3	3	0.001497	0.000000
4	4	0	4	3	0.000181	0.000261
4	4	0	5	3	-0.000012	0.000007
4	4	0	6	3	0.000018	0.000045
4	4	0	7	3	0.000000	0.000000
4	4	0	8	3	-0.000008	0.000008
4	4	0	1	4	0.000644	-0.000092
4	4	0	2	4	0.000020	0.000002
4	4	0	3	4	0.000181	-0.000261
4	4	0	4	4	0.001494	0.000000
4	4	0	5	4	0.000007	-0.000013
4	4	0	6	4	0.000046	0.000017
4	4	0	7	4	0.000008	-0.000008
4	4	0	8	4	0.000000	0.000000
4	4	0	1	5	0.000000	0.000000
4	4	0	2	5	0.000024	-0.000024
4	4	0	3	5	0.000012	0.000007
4	4	0	4	5	-0.000007	-0.000013
4	4	0	5	5	-0.002496	0.000000
4	4	0	6	5	-0.000015	0.000000
4	4	0	7	5	-0.000648	-0.000091
4	4	0	8	5	-0.000644	0.000092
4	4	0	1	6	0.000024	-0.000024
4	4	0	2	6	0.000000	0.000000
4	4	0	3	6	0.000018	-0.000045
4	4	0	4	6	0.000046	-0.000017
4	4	0	5	6	0.000015	0.000000
4	4	0	6	6	-0.000686	0.000000
4	4	0	7	6	0.000020	-0.000002
4	4	0	8	6	0.000020	0.000002
4	4	0	1	7	0.000012	0.000007
4	4	0	2	7	-0.000018	0.000045
4	4	0	3	7	0.000000	0.000000
4	4	0	4	7	0.000008	0.000008
4	4	0	5	7	0.000648	-0.000091
4	4	0	6	7	0.000020	0.000002
4	4	0	7	7	0.001497	0.000000
4	4	0	8	7	0.000181	-0.000261
4	4	0	1	8	-0.000007	-0.000013
4	4	0	2	8	-0.000046	0.000017
4	4	0	3	8	-0.000008	-0.000008
4	4	0	4	8	0.000000	0.000000
4	4	0	5	8	0.000644	0.000092
4	4	0	6	8	0.000020	-0.000002
4	4	0	7	8	0.000181	0.000261
4	4	0	8	8	0.001494	0.000000
4	4	1	1	1	-0.001515	0.000000
4	4	1	2	1	-0.001062	0.000000
4	4	1	3	1	-0.000441	0.000052
4	4	1	4	1	-0.000437	-0.000053
4	4	1	5	1	0.000000	0.000000
4	4	1	6	1	-0.000016	-0.000016
4	4	1	7	1	0.000217	-0.000004
4	4	1	8	1	-0.000005	0.000217
4	4	1	1	2	0.001062	0.000000
4	4	1	2	2	-0.000398	0.000000
4	4	1	3	2	0.000117	-0.000020
4	4	1	4	2	0.000116	0.000021
4	4	1	5	2	-0.000016	-0.000016
4	4	1	6	2	0.000000	0.000000
4	4	1	7	2	-0.000025	-0.000042
4	4	1	8	2	-0.000042	-0.000024
4	4	1	1	3	0.000441	0.000052
4	4	1	2	3	0.000117	0.000020
4	4	1	3	3	0.001202	0.000000
4	4	1	4	3	0.000084	0.000274
4	4	1	5	3	0.000217	-0.000004
4	4	1	6	3	0.000025	0.000042
4	4	1	7	3	0.000000	0.000000
4	4	1	8	3	-0.000046	0.000047
4	4	1	1	4	0.000437	-0.000053
4	4	1	2	4	0.000116	-0.000021
4	4	1	3	4	0.000084	-0.000274
4	4	1	4	4	0.001200	0.000000
4	4	1	5	4	-0.000005	0.000217
4	4	1	6	4	0.000042	0.000024
4	4	1	7	4	0.000046	-0.000047
4	4	1	8	4	0.000000	0.000000
4	4	1	1	5	0.000000	0.000000
4	4	1	2	5	0.000016	-0.000016
4	4	1	3	5	-0.000217	-0.000004
4	4	1	4	5	0.000005	0.000217
4	4	1	5	5	-0.001515	0.000000
4	4	1	6	5	-0.001062	0.000000
4	4	1	7	5	-0.000441	-0.000052
4	4	1	8	5	-0.000437	0.000053
4	4	1	1	6	0.000016	-0.000016
4	4	1	2	6	0.000000	0.000000
4	4	1	3	6	0.000025	-0.000042
4	4	1	4	6	0.000042	-0.000024
4	4	1	5	6	0.001062	0.000000
4	4	1	6	6	-0.000398	0.000000
4	4	1	7	6	0.000117	0.000020
4	4	1	8	6	0.000116	-0.000021
4	4	1	1	7	-0.000217	-0.000004
4	4	1	2	7	-0.000025	0.000042
4	4	1	3	7	0.000000	0.000000
4	4	1	4	7	0.000046	0.000047
4	4	1	5	7	0.000441	-0.000052
4	4	1	6	7	0.000117	-0.000020
4	4	1	7	7	0.001202	0.000000
4	4	1	8	7	0.000084	-0.000274
4	4	1	1	8	0.000005	0.000217
4	4	1	2	8	-0.000042	0.000024
4	4	1	3	8	-0.000046	-0.000047
4	4	1	4	8	0.000000	0.000000
4	4	1	5	8	0.000437	0.000053
4	4	1	6	8	0.000116	0.000021
4	4	1	7	8	0.000084	0.000274
4	4	1	8	8	0.001200	0.000000
4	4	2	1	1	-0.000510	0.000000
4	4	2	2	1	-0.001087	0.000000
4	4	2	3	1	-0.000047	-0.000048
4	4	2	4	1	-0.000046	0.000048
4	4	2	5	1	0.000000	0.000000
4	4	2	6	1	0.000007	0.000007
4	4	2	7	1	0.000230	-0.000009
4	4	2	8	1	-0.000010	0.000230
4	4	2	1	2	0.001087	0.000000
4	4	2	2	2	0.000069	0.000000
4	4	2	3	2	0.000006	0.000017
4	4	2	4	2	0.000007	-0.000017
4	4	2	5	2	0.000007	0.000007
4	4	2	6	2	0.000000	0.000000
4	4	2	7	2	-0.000041	-0.000005
4	4	2	8	2	-0.000006	-0.000041
4	4	2	1	3	0.000047	-0.000048
4	4	2	2	3	0.000006	-0.000017
4	4	2	3	3	0.000256	0.000000
4	4	2	4	3	-0.000006	0.000145
4	4	2	5	3	0.000230	-0.000009
4	4	2	6	3	0.000041	0.000005
4	4	2	7	3	0.000000	0.000000
4	4	2	8	3	-0.000058	0.000059
4	4	2	1	4	0.000046	0.000048
4	4	2	2	4	0.000007	0.000017
4	4	2	3	4	-0.000006	-0.000145
4	4	2	4	4	0.000256	0.000000
4	4	2	5	4	-0.000010	0.000230
4	4	2	6	4	0.000006	0.000041
4	4	2	7	4	0.000058	-0.000059
4	4	2	8	4	0.000000	0.000000
4	4	2	1	5	0.000000	0.000000
4	4	2	2	5	-0.000007	0.000007
4	4	2	3	5	-0.000230	-0.000009
4	4	2	4	5	0.000010	0.000230
4	4	2	5	5	-0.000510	0.000000
4	4	2	6	5	-0.001087	0.000000
4	4	2	7	5	-0.000047	0.000048
4	4	2	8	5	-0.000046	-0.000048
4	4	2	1	6	-0.000007	0.000007
4	4	2	2	6	0.000000	0.000000
4	4	2	3	6	0.000041	-0.000005
4	4	2	4	6	0.000006	-0.000041
4	4	2	5	6	0.001087	0.000000
4	4	2	6	6	0.000069	0.000000
4	4	2	7	6	0.000006	-0.000017
4	4	2	8	6	0.000007	0.000017
4	4	2	1	7	-0.000230	-0.000009
4	4	2	2	7	-0.000041	0.000005
4	4	2	3	7	0.000000	0.000000
4	4	2	4	7	0.000058	0.000059
4	4	2	5	7	0.000047	0.000048
4	4	2	6	7	0.000006	0.000017
4	4	2	7	7	0.000256	0.000000
4	4	2	8	7	-0.000006	-0.000145
4	4	2	1	8	0.000010	0.000230
4	4	2	2	8	-0.000006	0.000041
4	4	2	3	8	-0.000058	-0.000059
4	4	2	4	8	0.000000	0.000000
4	4	2	5	8	0.000046	-0.000048
4	4	2	6	8	0.000007	-0.000017
4	4	2	7	8	-0.000006	0.000145
4	4	2	8	8	0.000256	0.000000
4	4	3	1	1	-0.000876	0.000000
4	4	3	2	1	-0.000611	0.000000
4	4	3	3	1	0.000010	0.000001
4	4	3	4	1	0.000010	-0.000001
4	4	3	5	1	0.000000	0.000000
4	4	3	6	1	0.000000	0.000000
4	4	3	7	1	0.000111	0.000002
4	4	3	8	1	0.000002	0.000111
4	4	3	1	2	0.000611	0.000000
4	4	3	2	2	0.000332	0.000000
4	4	3	3	2	-0.000120	0.000039
4	4	3	4	2	-0.000119	-0.000039
4	4	3	5	2	0.000000	0.000000
4	4	3	6	2	0.000000	0.000000
4	4	3	7	2	-0.000032	0.000015
4	4	3	8	2	0.000015	-0.000032
4	4	3	1	3	-0.000010	0.000001
4	4	3	2	3	-0.000120	-0.000039
4	4	3	3	3	0.000295	0.000000
4	4	3	4	3	-0.000082	0.000034
4	4	3	5	3	0.000111	0.000002
4	4	3	6	3	0.000032	-0.000015
4	4	3	7	3	0.000000	0.000000
4	4	3	8	3	-0.000038	0.000039
4	4	3	1	4	-0.000010	-0.000001
4	4	3	2	4	-0.000119	0.000039
4	4	3	3	4	-0.000082	-0.000034
4	4	3	4	4	0.000296	0.000000
4	4	3	5	4	0.000002	0.000111
4	4	3	6	4	-0.000015	0.000032
4	4	3	7	4	0.000038	-0.000039
4	4	3	8	4	0.000000	0.000000
4	4	3	1	5	0.000000	0.000000
4	4	3	2	5	0.000000	0.000000
4	4	3	3	5	-0.000111	0.000002
4	4	3	4	5	-0.000002	0.000111
4	4	3	5	5	-0.000876	0.000000
4	4	3	6	5	-0.000611	0.000000
4	4	3	7	5	0.000010	-0.000001
4	4	3	8	5	0.000010	0.000001
4	4	3	1	6	0.000000	0.000000
4	4	3	2	6	0.000000	0.000000
4	4	3	3	6	0.000032	0.000015
4	4	3	4	6	-0.000015	-0.000032
4	4	3	5	6	0.000611	0.000000
4	4	3	6	6	0.000332	0.000000
4	4	3	7	6	-0.000120	-0.000039
4	4	3	8	6	-0.000119	0.000039
4	4	3	1	7	-0.000111	0.000002
4	4	3	2	7	-0.000032	-0.000015
4	4	3	3	7	0.000000	0.000000
4	4	3	4	7	0.000038	0.000039
4	4	3	5	7	-0.000010	-0.000001
4	4	3	6	7	-0.000120	0.000039
4	4	3	7	7	0.000295	0.000000
4	4	3	8	7	-0.000082	-0.000034
4	4	3	1	8	-0.000002	0.000111
4	4	3	2	8	0.000015	0.000032
4	4	3	3	8	-0.000038	-0.000039
4	4	3	4	8	0.000000	0.000000
4	4	3	5	8	-0.000010	0.000001
4	4	3	6	8	-0.000119	-0.000039
4	4	3	7	8	-0.000082	0.000034
4	4	3	8	8	0.000296	0.000000
4	4	4	1	1	-0.001769	0.000000
4	4	4	2	1	-0.000166	0.000000
4	4	4	3	1	-0.000171	0.000030
4	4	4	4	1	-0.000169	-0.000030
4	4	4	5	1	0.000000	0.000000
4	4	4	6	1	-0.000030	-0.000030
4	4	4	7	1	0.000030	0.000000
4	4	4	8	1	0.000000	0.000030
4	4	4	1	2	0.000166	0.000000
4	4	4	2	2	0.000418	0.000000
4	4	4	3	2	-0.000070	0.000010
4	4	4	4	2	-0.000069	-0.000010
4	4	4	5	2	-0.000030	-0.000030
4	4	4	6	2	0.000000	0.000000
4	4	4	7	2	0.000014	0.000010
4	4	4	8	2	0.000010	0.000014
4	4	4	1	3	0.000171	0.000030
4	4	4	2	3	-0.000070	-0.000010
4	4	4	3	3	0.000414	0.000000
4	4	4	4	3	-0.000071	-0.000014
4	4	4	5	3	0.000030	0.000000
4	4	4	6	3	-0.000014	-0.000010
4	4	4	7	3	0.000000	0.000000
4	4	4	8	3	-0.000010	0.000010
4	4	4	1	4	0.000169	-0.000030
4	4	4	2	4	-0.000069	0.000010
4	4	4	3	4	-0.000071	0.000014
4	4	4	4	4	0.000415	0.000000
4	4	4	5	4	0.000000	0.000030
4	4	4	6	4	-0.000010	-0.000014
4	4	4	7	4	0.000010	-0.000010
4	4	4	8	4	0.000000	0.000000
4	4	4	1	5	0.000000	0.000000
4	4	4	2	5	0.000030	-0.000030
4	4	4	3	5	-0.000030	0.000000
4	4	4	4	5	0.000000	0.000030
4	4	4	5	5	-0.001769	0.000000
4	4	4	6	5	-0.000166	0.000000
4	4	4	7	5	-0.000171	-0.000030
4	4	4	8	5	-0.000169	0.000030
4	4	4	1	6	0.000030	-0.000030
4	4	4	2	6	0.000000	0.000000
4	4	4	3	6	-0.000014	0.000010
4	4	4	4	6	-0.000010	0.000014
4	4	4	5	6	0.000166	0.000000
4	4	4	6	6	0.000418	0.000000
4	4	4	7	6	-0.000070	-0.000010
4	4	4	8	6	-0.000069	0.000010
4	4	4	1	7	-0.000030	0.000000
4	4	4	2	7	0.000014	-0.000010
4	4	4	3	7	0.000000	0.000000
4	4	4	4	7	0.000010	0.000010
4	4	4	5	7	0.000171	-0.000030
4	4	4	6	7	-0.000070	0.000010
4	4	4	7	7	0.000414	0.000000
4	4	4	8	7	-0.000071	0.000014
4	4	4	1	8	0.000000	0.000030
4	4	4	2	8	0.000010	-0.000014
4	4	4	3	8	-0.000010	-0.000010
4	4	4	4	8	0.000000	0.000000
4	4	4	5	8	0.000169	0.000030
4	4	4	6	8	-0.000069	-0.000010
4	4	4	7	8	-0.000071	-0.000014
4	4	4	8	8	0.000415	0.000000
