 
             +---------------------------------------------------+
             |                                                   |
             |                   WANNIER90                       |
             |                                                   |
             +---------------------------------------------------+
             |                                                   |
             |        Welcome to the Maximally-Localized         |
             |        Generalized Wannier Functions code         |
             |            http://www.wannier.org                 |
             |                                                   |
             |  Wannier90 Authors:                               |
             |    Arash A. Mostofi   (Imperial College London)   |
             |    Jonathan R. Yates  (University of Oxford)      |
             |    Young-Su Lee       (KIST, S. Korea)            |
             |                                                   |
             |  Wannier90 Contributors:                          |
             |    Matthew Shelley    (Imperial College London)   |
             |    Nicolas Poilvert   (MIT)                       |
             |                                                   |
             |  Wannier77 Authors:                               |
             |    Nicola Marzari     (University of Oxford)      |
             |    Ivo Souza          (UC Berkeley)               |
             |    David Vanderbilt   (Rutgers University)        |
             |                                                   |
             |  Please cite                                      |
             |                                                   |
             |  [ref] "Wannier90: A Tool for Obtaining Maximally |
             |         Localised Wannier Functions"              |
             |        A. A. Mostofi, J. R. Yates, Y.-S. Lee,     |
             |        I. Souza, D. Vanderbilt and N. Marzari     |
             |        Comput. Phys. Commun. 178, 685 (2008)      |
             |                                                   |
             |  in any publications arising from the use of      |
             |  this code. For the method please cite            |
             |                                                   |
             |  [ref] "Maximally Localized Generalised Wannier   |
             |         Functions for Composite Energy Bands"     |
             |         N. Marzari and D. Vanderbilt              |
             |         Phys. Rev. B 56 12847 (1997)              |
             |                                                   |
             |  [ref] "Maximally Localized Wannier Functions     |
             |         for Entangled Energy Bands"               |
             |         I. Souza, N. Marzari and D. Vanderbilt    |
             |         Phys. Rev. B 65 035109 (2001)             |
             |                                                   |
             |                                                   |
             | Copyright (c) 1996-2010                           |
             |        A. A. Mostofi, J. R. Yates, Y.-S. Lee,     |
             |        I. Souza, D. Vanderbilt and N. Marzari     |
             |                                                   |
             |        Release: 1.2        24th Jan 2010          |
             |                                                   |
             | This program is free software; you can            |
             | redistribute it and/or modify it under the terms  |
             | of the GNU General Public License as published by |
             | the Free Software Foundation; either version 2 of |
             | the License, or (at your option) any later version|
             |                                                   |
             | This program is distributed in the hope that it   |
             | will be useful, but WITHOUT ANY WARRANTY; without |
             | even the implied warranty of MERCHANTABILITY or   |
             | FITNESS FOR A PARTICULAR PURPOSE. See the GNU     |
             | General Public License for more details.          |
             |                                                   |
             | You should have received a copy of the GNU General|
             | Public License along with this program; if not,   |
             | write to the Free Software Foundation, Inc.,      |
             | 675 Mass Ave, Cambridge, MA 02139, USA.           |
             |                                                   |
             +---------------------------------------------------+
             |    Execution started on 26Dec2017 at 11:55:00     |
             +---------------------------------------------------+
 
                                    ------
                                    SYSTEM
                                    ------
 
                              Lattice Vectors (Ang)
                    a_1     4.170000   0.000000   0.000000
                    a_2     0.000000   5.490000   0.000000
                    a_3     0.000000   0.000000  23.000000
 
                   Unit Cell Volume:     526.54589  (Ang^3)
 
                        Reciprocal-Space Vectors (Ang^-1)
                    b_1     1.506759   0.000000   0.000000
                    b_2     0.000000   1.144478   0.000000
                    b_3     0.000000   0.000000   0.273182
  
 *----------------------------------------------------------------------------*
 |   Site       Fractional Coordinate          Cartesian Coordinate (Ang)     |
 +----------------------------------------------------------------------------+
 | Te   1   1.00000   0.99967   0.50001   |    4.17000   5.48819  11.50013    |
 | Te   2   0.50000   0.65538   0.54715   |    2.08500   3.59803  12.58438    |
 | Te   3   0.50000   0.34395   0.45285   |    2.08500   1.88829  10.41549    |
 *----------------------------------------------------------------------------*
  
                                ------------
                                K-POINT GRID
                                ------------
  
             Grid size = 16 x 10 x  1      Total points =  160
  
  
 *---------------------------------- MAIN ------------------------------------*
 |  Number of Wannier Functions               :                 9             |
 |  Number of input Bloch states              :                 9             |
 |  Output verbosity (1=low, 5=high)          :                 1             |
 |  Timing Level (1=low, 5=high)              :                 1             |
 |  Optimisation (0=memory, 3=speed)          :                 3             |
 |  Length Unit                               :               Ang             |
 |  Post-processing setup (write *.nnkp)      :                 F             |
 |  Using Gamma-only branch of algorithms     :                 F             |
 *----------------------------------------------------------------------------*
 *------------------------------- WANNIERISE ---------------------------------*
 |  Total number of iterations                :               500             |
 |  Number of CG steps before reset           :                 5             |
 |  Trial step length for line search         :             2.000             |
 |  Convergence tolerence                     :         0.100E-09             |
 |  Convergence window                        :                -1             |
 |  Iterations between writing output         :                 1             |
 |  Iterations between backing up to disk     :               100             |
 |  Write r^2_nm to file                      :                 F             |
 |  Write xyz WF centres to file              :                 T             |
 |  Use guiding centre to control phases      :                 T             |
 |  Iterations before starting guiding centres:                 0             |
 |  Iterations between using guiding centres  :                 1             |
 *----------------------------------------------------------------------------*
 *-------------------------------- PLOTTING ----------------------------------*
 |  Plotting Hamiltonian in WF basis          :                 T             |
 *----------------------------------------------------------------------------*
 Time to read parameters        0.012 (sec)

 *---------------------------------- K-MESH ----------------------------------*
 +----------------------------------------------------------------------------+
 |                    Distance to Nearest-Neighbour Shells                    |
 |                    ------------------------------------                    |
 |          Shell             Distance (Ang^-1)          Multiplicity         |
 |          -----             -----------------          ------------         |
 |             1                   0.094172                      2            |
 |             2                   0.114448                      2            |
 |             3                   0.148212                      4            |
 |             4                   0.188345                      2            |
 |             5                   0.220391                      4            |
 |             6                   0.228896                      2            |
 |             7                   0.247511                      4            |
 |             8                   0.273182                      2            |
 |             9                   0.282517                      2            |
 |            10                   0.288958                      4            |
 |            11                   0.296187                      4            |
 |            12                   0.296424                      4            |
 +----------------------------------------------------------------------------+
 | The b-vectors are chosen automatically                                     |
 | SVD found small singular value, Rejecting this shell and trying the next   |
 | SVD found small singular value, Rejecting this shell and trying the next   |
 | SVD found small singular value, Rejecting this shell and trying the next   |
 | The following shells are used:   1,  2,  8                                 |
 +----------------------------------------------------------------------------+
 |                        Shell   # Nearest-Neighbours                        |
 |                        -----   --------------------                        |
 |                          1               2                                 |
 |                          2               2                                 |
 |                          8               2                                 |
 +----------------------------------------------------------------------------+
 | Completeness relation is fully satisfied [Eq. (B1), PRB 56, 12847 (1997)]  |
 +----------------------------------------------------------------------------+
 |                  b_k Vectors (Ang^-1) and Weights (Ang^2)                  |
 |                  ----------------------------------------                  |
 |            No.         b_k(x)      b_k(y)      b_k(z)        w_b           |
 |            ---        --------------------------------     --------        |
 |             1         0.094172    0.000000    0.000000    56.379648        |
 |             2        -0.094172    0.000000    0.000000    56.379648        |
 |             3         0.000000    0.114448    0.000000    38.172880        |
 |             4         0.000000   -0.114448    0.000000    38.172880        |
 |             5         0.000000    0.000000    0.273182     6.699863        |
 |             6         0.000000    0.000000   -0.273182     6.699863        |
 +----------------------------------------------------------------------------+
 |                           b_k Directions (Ang^-1)                          |
 |                           -----------------------                          |
 |            No.           x           y           z                         |
 |            ---        --------------------------------                     |
 |             1         0.094172    0.000000    0.000000                     |
 |             2         0.000000    0.114448    0.000000                     |
 |             3         0.000000    0.000000    0.273182                     |
 +----------------------------------------------------------------------------+
  
 *============================================================================*
 |                              MEMORY ESTIMATE                               |
 |         Maximum RAM allocated during each phase of the calculation         |
 *============================================================================*
 |                            Wannierise:            3.56 Mb                  |
 *----------------------------------------------------------------------------*
  
 Starting a new Wannier90 calculation ...

 Time to get kmesh              0.060 (sec)

 Reading overlaps from wannier90.up.mmn    : File generated by VASP: Te-2d

 Reading projections from wannier90.up.amn : File generated by VASP: Te-2d

 Time to read overlaps          0.088 (sec)

 Writing checkpoint file wannier90.up.chk... done

 
 *------------------------------- WANNIERISE ---------------------------------*
 +--------------------------------------------------------------------+<-- CONV
 | Iter  Delta Spread     RMS Gradient      Spread (Ang^2)      Time  |<-- CONV
 +--------------------------------------------------------------------+<-- CONV
 
 ------------------------------------------------------------------------------
 Initial State
  WF centre and spread    1  (  4.170000,  5.488169, 11.500132 )     2.67888870
  WF centre and spread    2  (  4.170000,  5.488197, 11.500138 )     3.51167283
  WF centre and spread    3  (  4.170000,  5.488210, 11.500138 )     3.18150532
  WF centre and spread    4  (  2.085000,  3.619940, 12.691022 )     2.90656497
  WF centre and spread    5  (  2.085000,  3.521416, 12.573615 )     2.84435674
  WF centre and spread    6  (  2.085000,  3.533804, 12.586183 )     3.05310517
  WF centre and spread    7  (  2.085000,  1.866404, 10.308831 )     2.90659659
  WF centre and spread    8  (  2.085000,  1.964878, 10.426235 )     2.84428507
  WF centre and spread    9  (  2.085000,  1.952481, 10.413671 )     3.05299607
  Sum of centres and spreads ( 25.020001, 32.923500,103.499964 )    26.97997145
 
      0     0.270E+02     0.0000000000       26.9799714465       0.16  <-- CONV
        O_D=      0.0417302 O_OD=      1.1656660 O_TOT=     26.9799714 <-- SPRD
 ------------------------------------------------------------------------------
 Cycle:      1
  WF centre and spread    1  (  4.170000,  5.488169,-11.499869 )     2.66297211
  WF centre and spread    2  (  4.170000,  5.488197,-11.499861 )     3.40890501
  WF centre and spread    3  (  4.170000,  5.488210,-11.499862 )     3.10105464
  WF centre and spread    4  (  2.085000,  3.619543,-10.306369 )     2.86745218
  WF centre and spread    5  (  2.085000,  3.522552,-10.426772 )     2.80813476
  WF centre and spread    6  (  2.085000,  3.534043,-10.413026 )     3.00902879
  WF centre and spread    7  (  2.085000,  1.866802, 10.306220 )     2.86748245
  WF centre and spread    8  (  2.085000,  1.963743, 10.426622 )     2.80805900
  WF centre and spread    9  (  2.085000,  1.952241, 10.412880 )     3.00891906
  Sum of centres and spreads ( 25.020001, 32.923500,-34.500036 )    26.54200799
 
      1    -0.438E+00     0.8025294561       26.5420079861       0.18  <-- CONV
        O_D=      0.0299001 O_OD=      0.7395326 O_TOT=     26.5420080 <-- SPRD
 Delta: O_D= -0.1183010E-01 O_OD= -0.4261334E+00 O_TOT= -0.4379635E+00 <-- DLTA
 ------------------------------------------------------------------------------
 Cycle:      2
  WF centre and spread    1  (  4.170000,  5.488169,-11.499869 )     2.66277613
  WF centre and spread    2  (  4.170000,  5.488197,-11.499861 )     3.37714480
  WF centre and spread    3  (  4.170000,  5.488209,-11.499862 )     3.07932812
  WF centre and spread    4  (  2.085000,  3.619123,-10.305397 )     2.85952239
  WF centre and spread    5  (  2.085000,  3.522910,-10.427192 )     2.80059830
  WF centre and spread    6  (  2.085000,  3.534570,-10.412714 )     2.99952278
  WF centre and spread    7  (  2.085000,  1.867223, 10.305248 )     2.85955519
  WF centre and spread    8  (  2.085000,  1.963385, 10.427042 )     2.80051981
  WF centre and spread    9  (  2.085000,  1.951714, 10.412568 )     2.99941209
  Sum of centres and spreads ( 25.020001, 32.923499,-34.500037 )    26.43837961
 
      2    -0.104E+00     0.5628577002       26.4383796057       0.19  <-- CONV
        O_D=      0.0238969 O_OD=      0.6419075 O_TOT=     26.4383796 <-- SPRD
 Delta: O_D= -0.6003232E-02 O_OD= -0.9762515E-01 O_TOT= -0.1036284E+00 <-- DLTA
 ------------------------------------------------------------------------------
 Cycle:      3
  WF centre and spread    1  (  4.170000,  5.488169,-11.499869 )     2.66257652
  WF centre and spread    2  (  4.170000,  5.488197,-11.499861 )     3.35600760
  WF centre and spread    3  (  4.170000,  5.488209,-11.499861 )     3.06685972
  WF centre and spread    4  (  2.085000,  3.618735,-10.304814 )     2.85681816
  WF centre and spread    5  (  2.085000,  3.523062,-10.427547 )     2.79701986
  WF centre and spread    6  (  2.085000,  3.534950,-10.412439 )     2.99587363
  WF centre and spread    7  (  2.085000,  1.867611, 10.304664 )     2.85685372
  WF centre and spread    8  (  2.085000,  1.963233, 10.427397 )     2.79693971
  WF centre and spread    9  (  2.085000,  1.951333, 10.412293 )     2.99576213
  Sum of centres and spreads ( 25.020001, 32.923499,-34.500037 )    26.38471104
 
      3    -0.537E-01     0.4944838472       26.3847110399       0.20  <-- CONV
        O_D=      0.0232193 O_OD=      0.5889165 O_TOT=     26.3847110 <-- SPRD
 Delta: O_D= -0.6775667E-03 O_OD= -0.5299100E-01 O_TOT= -0.5366857E-01 <-- DLTA
 ------------------------------------------------------------------------------
 Cycle:      4
  WF centre and spread    1  (  4.170000,  5.488169,-11.499869 )     2.66385679
  WF centre and spread    2  (  4.170000,  5.488197,-11.499860 )     3.33818694
  WF centre and spread    3  (  4.170000,  5.488209,-11.499861 )     3.05907474
  WF centre and spread    4  (  2.085000,  3.618363,-10.304432 )     2.85712477
  WF centre and spread    5  (  2.085000,  3.523116,-10.427853 )     2.79427058
  WF centre and spread    6  (  2.085000,  3.535295,-10.412175 )     2.99329956
  WF centre and spread    7  (  2.085000,  1.867983, 10.304282 )     2.85716302
  WF centre and spread    8  (  2.085000,  1.963179, 10.427703 )     2.79418998
  WF centre and spread    9  (  2.085000,  1.950988, 10.412029 )     2.99318607
  Sum of centres and spreads ( 25.020001, 32.923499,-34.500037 )    26.35035244
 
      4    -0.344E-01     0.4045198075       26.3503524433       0.22  <-- CONV
        O_D=      0.0221501 O_OD=      0.5556271 O_TOT=     26.3503524 <-- SPRD
 Delta: O_D= -0.1069240E-02 O_OD= -0.3328936E-01 O_TOT= -0.3435860E-01 <-- DLTA
 ------------------------------------------------------------------------------
 Cycle:      5
  WF centre and spread    1  (  4.170000,  5.488169,-11.499869 )     2.66568818
  WF centre and spread    2  (  4.170000,  5.488197,-11.499860 )     3.32023295
  WF centre and spread    3  (  4.170000,  5.488208,-11.499861 )     3.05269672
  WF centre and spread    4  (  2.085000,  3.617991,-10.304205 )     2.85958224
  WF centre and spread    5  (  2.085000,  3.523122,-10.428126 )     2.79174021
  WF centre and spread    6  (  2.085000,  3.535652,-10.411942 )     2.99130736
  WF centre and spread    7  (  2.085000,  1.868356, 10.304054 )     2.85962295
  WF centre and spread    8  (  2.085000,  1.963174, 10.427977 )     2.79165933
  WF centre and spread    9  (  2.085000,  1.950631, 10.411796 )     2.99119185
  Sum of centres and spreads ( 25.020001, 32.923499,-34.500037 )    26.32372180
 
      5    -0.266E-01     0.3673077580       26.3237218013       0.23  <-- CONV
        O_D=      0.0216520 O_OD=      0.5294946 O_TOT=     26.3237218 <-- SPRD
 Delta: O_D= -0.4981473E-03 O_OD= -0.2613249E-01 O_TOT= -0.2663064E-01 <-- DLTA
 ------------------------------------------------------------------------------
 Cycle:      6
  WF centre and spread    1  (  4.170000,  5.488169,-11.499869 )     2.66775885
  WF centre and spread    2  (  4.170000,  5.488197,-11.499860 )     3.30364588
  WF centre and spread    3  (  4.170000,  5.488208,-11.499861 )     3.04727885
  WF centre and spread    4  (  2.085000,  3.617659,-10.304137 )     2.86362791
  WF centre and spread    5  (  2.085000,  3.523083,-10.428333 )     2.78899152
  WF centre and spread    6  (  2.085000,  3.536001,-10.411784 )     2.98975820
  WF centre and spread    7  (  2.085000,  1.868688, 10.303987 )     2.86367070
  WF centre and spread    8  (  2.085000,  1.963212, 10.428183 )     2.78891093
  WF centre and spread    9  (  2.085000,  1.950282, 10.411638 )     2.98964064
  Sum of centres and spreads ( 25.020001, 32.923499,-34.500037 )    26.30328348
 
      6    -0.204E-01     0.3243947763       26.3032834799       0.24  <-- CONV
        O_D=      0.0218876 O_OD=      0.5088207 O_TOT=     26.3032835 <-- SPRD
 Delta: O_D=  0.2356415E-03 O_OD= -0.2067396E-01 O_TOT= -0.2043832E-01 <-- DLTA
 ------------------------------------------------------------------------------
 Cycle:      7
  WF centre and spread    1  (  4.170000,  5.488169,-11.499869 )     2.66755390
  WF centre and spread    2  (  4.170000,  5.488197,-11.499860 )     3.30147194
  WF centre and spread    3  (  4.170000,  5.488208,-11.499861 )     3.04605638
  WF centre and spread    4  (  2.085000,  3.617635,-10.304137 )     2.86362434
  WF centre and spread    5  (  2.085000,  3.523060,-10.428305 )     2.78730794
  WF centre and spread    6  (  2.085000,  3.536024,-10.411782 )     2.98872176
  WF centre and spread    7  (  2.085000,  1.868711, 10.303986 )     2.86366685
  WF centre and spread    8  (  2.085000,  1.963236, 10.428155 )     2.78722743
  WF centre and spread    9  (  2.085000,  1.950260, 10.411636 )     2.98860410
  Sum of centres and spreads ( 25.020001, 32.923499,-34.500037 )    26.29423466
 
      7    -0.905E-02     0.2920074521       26.2942346559       0.25  <-- CONV
        O_D=      0.0209970 O_OD=      0.5006624 O_TOT=     26.2942347 <-- SPRD
 Delta: O_D= -0.8905689E-03 O_OD= -0.8158255E-02 O_TOT= -0.9048824E-02 <-- DLTA
 ------------------------------------------------------------------------------
 Cycle:      8
  WF centre and spread    1  (  4.170000,  5.488169,-11.499869 )     2.66814742
  WF centre and spread    2  (  4.170000,  5.488197,-11.499860 )     3.29722436
  WF centre and spread    3  (  4.170000,  5.488208,-11.499861 )     3.04504322
  WF centre and spread    4  (  2.085000,  3.617564,-10.304149 )     2.86495712
  WF centre and spread    5  (  2.085000,  3.523031,-10.428244 )     2.78563813
  WF centre and spread    6  (  2.085000,  3.536094,-10.411783 )     2.98746157
  WF centre and spread    7  (  2.085000,  1.868783, 10.303999 )     2.86499941
  WF centre and spread    8  (  2.085000,  1.963264, 10.428094 )     2.78555801
  WF centre and spread    9  (  2.085000,  1.950190, 10.411637 )     2.98734374
  Sum of centres and spreads ( 25.020001, 32.923499,-34.500037 )    26.28637299
 
      8    -0.786E-02     0.1998677349       26.2863729890       0.26  <-- CONV
        O_D=      0.0207858 O_OD=      0.4930120 O_TOT=     26.2863730 <-- SPRD
 Delta: O_D= -0.2112668E-03 O_OD= -0.7650400E-02 O_TOT= -0.7861667E-02 <-- DLTA
 ------------------------------------------------------------------------------
 Cycle:      9
  WF centre and spread    1  (  4.170000,  5.488169,-11.499869 )     2.66913667
  WF centre and spread    2  (  4.170000,  5.488197,-11.499860 )     3.29202317
  WF centre and spread    3  (  4.170000,  5.488208,-11.499861 )     3.04416088
  WF centre and spread    4  (  2.085000,  3.617477,-10.304187 )     2.86705371
  WF centre and spread    5  (  2.085000,  3.523014,-10.428175 )     2.78420369
  WF centre and spread    6  (  2.085000,  3.536195,-10.411792 )     2.98644280
  WF centre and spread    7  (  2.085000,  1.868869, 10.304037 )     2.86709590
  WF centre and spread    8  (  2.085000,  1.963281, 10.428025 )     2.78412407
  WF centre and spread    9  (  2.085000,  1.950089, 10.411645 )     2.98632469
  Sum of centres and spreads ( 25.020001, 32.923499,-34.500037 )    26.28056558
 
      9    -0.581E-02     0.1767554369       26.2805655803       0.27  <-- CONV
        O_D=      0.0207485 O_OD=      0.4872419 O_TOT=     26.2805656 <-- SPRD
 Delta: O_D= -0.3728920E-04 O_OD= -0.5770120E-02 O_TOT= -0.5807409E-02 <-- DLTA
 ------------------------------------------------------------------------------
 Cycle:     10
  WF centre and spread    1  (  4.170000,  5.488169,-11.499869 )     2.67048978
  WF centre and spread    2  (  4.170000,  5.488197,-11.499860 )     3.28521569
  WF centre and spread    3  (  4.170000,  5.488208,-11.499861 )     3.04292768
  WF centre and spread    4  (  2.085000,  3.617380,-10.304277 )     2.87045564
  WF centre and spread    5  (  2.085000,  3.522996,-10.428095 )     2.78257959
  WF centre and spread    6  (  2.085000,  3.536338,-10.411809 )     2.98535405
  WF centre and spread    7  (  2.085000,  1.868966, 10.304127 )     2.87049816
  WF centre and spread    8  (  2.085000,  1.963300, 10.427945 )     2.78250068
  WF centre and spread    9  (  2.085000,  1.949945, 10.411663 )     2.98523529
  Sum of centres and spreads ( 25.020001, 32.923499,-34.500037 )    26.27525655
 
     10    -0.531E-02     0.1544441584       26.2752565518       0.28  <-- CONV
        O_D=      0.0205198 O_OD=      0.4821615 O_TOT=     26.2752566 <-- SPRD
 Delta: O_D= -0.2286555E-03 O_OD= -0.5080373E-02 O_TOT= -0.5309028E-02 <-- DLTA
 ------------------------------------------------------------------------------
 Cycle:     11
  WF centre and spread    1  (  4.170000,  5.488169,-11.499869 )     2.67174458
  WF centre and spread    2  (  4.170000,  5.488197,-11.499860 )     3.27693716
  WF centre and spread    3  (  4.170000,  5.488208,-11.499861 )     3.04093642
  WF centre and spread    4  (  2.085000,  3.617299,-10.304439 )     2.87510442
  WF centre and spread    5  (  2.085000,  3.522980,-10.428015 )     2.78090810
  WF centre and spread    6  (  2.085000,  3.536501,-10.411846 )     2.98434782
  WF centre and spread    7  (  2.085000,  1.869048, 10.304289 )     2.87514786
  WF centre and spread    8  (  2.085000,  1.963315, 10.427865 )     2.78082991
  WF centre and spread    9  (  2.085000,  1.949782, 10.411699 )     2.98422816
  Sum of centres and spreads ( 25.020001, 32.923499,-34.500037 )    26.27018443
 
     11    -0.507E-02     0.1563383750       26.2701844278       0.30  <-- CONV
        O_D=      0.0204954 O_OD=      0.4771138 O_TOT=     26.2701844 <-- SPRD
 Delta: O_D= -0.2442485E-04 O_OD= -0.5047699E-02 O_TOT= -0.5072124E-02 <-- DLTA
 ------------------------------------------------------------------------------
 Cycle:     12
  WF centre and spread    1  (  4.170000,  5.488169,-11.499869 )     2.67259282
  WF centre and spread    2  (  4.170000,  5.488197,-11.499860 )     3.26928694
  WF centre and spread    3  (  4.170000,  5.488208,-11.499861 )     3.03854182
  WF centre and spread    4  (  2.085000,  3.617258,-10.304636 )     2.87988308
  WF centre and spread    5  (  2.085000,  3.522979,-10.427964 )     2.77952490
  WF centre and spread    6  (  2.085000,  3.536641,-10.411897 )     2.98354924
  WF centre and spread    7  (  2.085000,  1.869088, 10.304486 )     2.87992785
  WF centre and spread    8  (  2.085000,  1.963317, 10.427814 )     2.77944725
  WF centre and spread    9  (  2.085000,  1.949643, 10.411751 )     2.98342861
  Sum of centres and spreads ( 25.020001, 32.923499,-34.500037 )    26.26618251
 
     12    -0.400E-02     0.1561898410       26.2661825126       0.31  <-- CONV
        O_D=      0.0205151 O_OD=      0.4730922 O_TOT=     26.2661825 <-- SPRD
 Delta: O_D=  0.1970279E-04 O_OD= -0.4021618E-02 O_TOT= -0.4001915E-02 <-- DLTA
 ------------------------------------------------------------------------------
 Cycle:     13
  WF centre and spread    1  (  4.170000,  5.488169,-11.499869 )     2.67242891
  WF centre and spread    2  (  4.170000,  5.488197,-11.499860 )     3.26817925
  WF centre and spread    3  (  4.170000,  5.488208,-11.499861 )     3.03763384
  WF centre and spread    4  (  2.085000,  3.617267,-10.304659 )     2.88042997
  WF centre and spread    5  (  2.085000,  3.522993,-10.427978 )     2.77934362
  WF centre and spread    6  (  2.085000,  3.536654,-10.411907 )     2.98328413
  WF centre and spread    7  (  2.085000,  1.869080, 10.304509 )     2.88047513
  WF centre and spread    8  (  2.085000,  1.963303, 10.427828 )     2.77926586
  WF centre and spread    9  (  2.085000,  1.949630, 10.411761 )     2.98316338
  Sum of centres and spreads ( 25.020001, 32.923499,-34.500037 )    26.26420408
 
     13    -0.198E-02     0.1214330763       26.2642040796       0.32  <-- CONV
        O_D=      0.0203067 O_OD=      0.4713221 O_TOT=     26.2642041 <-- SPRD
 Delta: O_D= -0.2083495E-03 O_OD= -0.1770083E-02 O_TOT= -0.1978433E-02 <-- DLTA
 ------------------------------------------------------------------------------
 Cycle:     14
  WF centre and spread    1  (  4.170000,  5.488169,-11.499869 )     2.67230505
  WF centre and spread    2  (  4.170000,  5.488197,-11.499860 )     3.26624961
  WF centre and spread    3  (  4.170000,  5.488208,-11.499861 )     3.03620135
  WF centre and spread    4  (  2.085000,  3.617281,-10.304709 )     2.88166469
  WF centre and spread    5  (  2.085000,  3.523028,-10.428007 )     2.77934147
  WF centre and spread    6  (  2.085000,  3.536682,-10.411930 )     2.98299193
  WF centre and spread    7  (  2.085000,  1.869065, 10.304559 )     2.88171063
  WF centre and spread    8  (  2.085000,  1.963267, 10.427857 )     2.77926351
  WF centre and spread    9  (  2.085000,  1.949601, 10.411784 )     2.98287091
  Sum of centres and spreads ( 25.020001, 32.923499,-34.500037 )    26.26259916
 
     14    -0.160E-02     0.0989886227       26.2625991561       0.33  <-- CONV
        O_D=      0.0202540 O_OD=      0.4697699 O_TOT=     26.2625992 <-- SPRD
 Delta: O_D= -0.5270506E-04 O_OD= -0.1552218E-02 O_TOT= -0.1604924E-02 <-- DLTA
 ------------------------------------------------------------------------------
 Cycle:     15
  WF centre and spread    1  (  4.170000,  5.488169,-11.499869 )     2.67236441
  WF centre and spread    2  (  4.170000,  5.488197,-11.499860 )     3.26348434
  WF centre and spread    3  (  4.170000,  5.488208,-11.499861 )     3.03448666
  WF centre and spread    4  (  2.085000,  3.617306,-10.304790 )     2.88350074
  WF centre and spread    5  (  2.085000,  3.523088,-10.428051 )     2.77941550
  WF centre and spread    6  (  2.085000,  3.536729,-10.411971 )     2.98265176
  WF centre and spread    7  (  2.085000,  1.869041, 10.304640 )     2.88354769
  WF centre and spread    8  (  2.085000,  1.963208, 10.427901 )     2.77933731
  WF centre and spread    9  (  2.085000,  1.949555, 10.411825 )     2.98253028
  Sum of centres and spreads ( 25.020001, 32.923499,-34.500037 )    26.26131869
 
     15    -0.128E-02     0.0787568495       26.2613186894       0.34  <-- CONV
        O_D=      0.0202515 O_OD=      0.4684920 O_TOT=     26.2613187 <-- SPRD
 Delta: O_D= -0.2545299E-05 O_OD= -0.1277921E-02 O_TOT= -0.1280467E-02 <-- DLTA
 ------------------------------------------------------------------------------
 Cycle:     16
  WF centre and spread    1  (  4.170000,  5.488169,-11.499869 )     2.67264951
  WF centre and spread    2  (  4.170000,  5.488197,-11.499860 )     3.25999380
  WF centre and spread    3  (  4.170000,  5.488208,-11.499861 )     3.03258518
  WF centre and spread    4  (  2.085000,  3.617344,-10.304903 )     2.88595059
  WF centre and spread    5  (  2.085000,  3.523166,-10.428106 )     2.77941611
  WF centre and spread    6  (  2.085000,  3.536794,-10.412033 )     2.98216241
  WF centre and spread    7  (  2.085000,  1.869002, 10.304753 )     2.88599875
  WF centre and spread    8  (  2.085000,  1.963130, 10.427956 )     2.77933771
  WF centre and spread    9  (  2.085000,  1.949490, 10.411887 )     2.98204026
  Sum of centres and spreads ( 25.020001, 32.923499,-34.500037 )    26.26013431
 
     16    -0.118E-02     0.0763732005       26.2601343114       0.35  <-- CONV
        O_D=      0.0201893 O_OD=      0.4673698 O_TOT=     26.2601343 <-- SPRD
 Delta: O_D= -0.6215477E-04 O_OD= -0.1122223E-02 O_TOT= -0.1184378E-02 <-- DLTA
 ------------------------------------------------------------------------------
 Cycle:     17
  WF centre and spread    1  (  4.170000,  5.488169,-11.499869 )     2.67305634
  WF centre and spread    2  (  4.170000,  5.488197,-11.499860 )     3.25662807
  WF centre and spread    3  (  4.170000,  5.488208,-11.499861 )     3.03100283
  WF centre and spread    4  (  2.085000,  3.617391,-10.305023 )     2.88842610
  WF centre and spread    5  (  2.085000,  3.523238,-10.428153 )     2.77929730
  WF centre and spread    6  (  2.085000,  3.536857,-10.412103 )     2.98161320
  WF centre and spread    7  (  2.085000,  1.868956, 10.304873 )     2.88847527
  WF centre and spread    8  (  2.085000,  1.963058, 10.428003 )     2.77921875
  WF centre and spread    9  (  2.085000,  1.949427, 10.411956 )     2.98149039
  Sum of centres and spreads ( 25.020001, 32.923499,-34.500037 )    26.25920824
 
     17    -0.926E-03     0.0710140087       26.2592082440       0.36  <-- CONV
        O_D=      0.0201541 O_OD=      0.4664789 O_TOT=     26.2592082 <-- SPRD
 Delta: O_D= -0.3519043E-04 O_OD= -0.8908770E-03 O_TOT= -0.9260675E-03 <-- DLTA
 ------------------------------------------------------------------------------
 Cycle:     18
  WF centre and spread    1  (  4.170000,  5.488169,-11.499869 )     2.67342965
  WF centre and spread    2  (  4.170000,  5.488197,-11.499860 )     3.25436521
  WF centre and spread    3  (  4.170000,  5.488208,-11.499861 )     3.03013433
  WF centre and spread    4  (  2.085000,  3.617430,-10.305110 )     2.89022065
  WF centre and spread    5  (  2.085000,  3.523276,-10.428175 )     2.77908842
  WF centre and spread    6  (  2.085000,  3.536898,-10.412157 )     2.98114772
  WF centre and spread    7  (  2.085000,  1.868917, 10.304960 )     2.89027039
  WF centre and spread    8  (  2.085000,  1.963019, 10.428025 )     2.77900984
  WF centre and spread    9  (  2.085000,  1.949386, 10.412010 )     2.98102448
  Sum of centres and spreads ( 25.020001, 32.923499,-34.500037 )    26.25869069
 
     18    -0.518E-03     0.0565133901       26.2586906950       0.38  <-- CONV
        O_D=      0.0201653 O_OD=      0.4659502 O_TOT=     26.2586907 <-- SPRD
 Delta: O_D=  0.1112905E-04 O_OD= -0.5286780E-03 O_TOT= -0.5175490E-03 <-- DLTA
 ------------------------------------------------------------------------------
 Cycle:     19
  WF centre and spread    1  (  4.170000,  5.488169,-11.499869 )     2.67348251
  WF centre and spread    2  (  4.170000,  5.488197,-11.499860 )     3.25413309
  WF centre and spread    3  (  4.170000,  5.488208,-11.499861 )     3.03012001
  WF centre and spread    4  (  2.085000,  3.617439,-10.305119 )     2.89041890
  WF centre and spread    5  (  2.085000,  3.523271,-10.428170 )     2.77893841
  WF centre and spread    6  (  2.085000,  3.536901,-10.412164 )     2.98102384
  WF centre and spread    7  (  2.085000,  1.868908, 10.304969 )     2.89046861
  WF centre and spread    8  (  2.085000,  1.963025, 10.428020 )     2.77885988
  WF centre and spread    9  (  2.085000,  1.949383, 10.412018 )     2.98090057
  Sum of centres and spreads ( 25.020001, 32.923499,-34.500037 )    26.25834582
 
     19    -0.345E-03     0.0554440530       26.2583458217       0.39  <-- CONV
        O_D=      0.0201398 O_OD=      0.4656309 O_TOT=     26.2583458 <-- SPRD
 Delta: O_D= -0.2551855E-04 O_OD= -0.3193547E-03 O_TOT= -0.3448732E-03 <-- DLTA
 ------------------------------------------------------------------------------
 Cycle:     20
  WF centre and spread    1  (  4.170000,  5.488169,-11.499869 )     2.67367654
  WF centre and spread    2  (  4.170000,  5.488197,-11.499860 )     3.25347079
  WF centre and spread    3  (  4.170000,  5.488208,-11.499861 )     3.03015717
  WF centre and spread    4  (  2.085000,  3.617465,-10.305149 )     2.89110426
  WF centre and spread    5  (  2.085000,  3.523256,-10.428154 )     2.77858020
  WF centre and spread    6  (  2.085000,  3.536908,-10.412187 )     2.98071020
  WF centre and spread    7  (  2.085000,  1.868881, 10.304998 )     2.89115392
  WF centre and spread    8  (  2.085000,  1.963039, 10.428004 )     2.77850181
  WF centre and spread    9  (  2.085000,  1.949376, 10.412041 )     2.98058683
  Sum of centres and spreads ( 25.020001, 32.923499,-34.500037 )    26.25794172
 
     20    -0.404E-03     0.0421363069       26.2579417187       0.40  <-- CONV
        O_D=      0.0201374 O_OD=      0.4652291 O_TOT=     26.2579417 <-- SPRD
 Delta: O_D= -0.2327140E-05 O_OD= -0.4017759E-03 O_TOT= -0.4041030E-03 <-- DLTA
 ------------------------------------------------------------------------------
 Cycle:     21
  WF centre and spread    1  (  4.170000,  5.488169,-11.499869 )     2.67391350
  WF centre and spread    2  (  4.170000,  5.488197,-11.499860 )     3.25255587
  WF centre and spread    3  (  4.170000,  5.488208,-11.499861 )     3.03018010
  WF centre and spread    4  (  2.085000,  3.617503,-10.305193 )     2.89205816
  WF centre and spread    5  (  2.085000,  3.523241,-10.428135 )     2.77814400
  WF centre and spread    6  (  2.085000,  3.536919,-10.412220 )     2.98034377
  WF centre and spread    7  (  2.085000,  1.868843, 10.305043 )     2.89210780
  WF centre and spread    8  (  2.085000,  1.963055, 10.427985 )     2.77806579
  WF centre and spread    9  (  2.085000,  1.949365, 10.412074 )     2.98022025
  Sum of centres and spreads ( 25.020001, 32.923499,-34.500037 )    26.25758925
 
     21    -0.352E-03     0.0420889967       26.2575892492       0.41  <-- CONV
        O_D=      0.0201409 O_OD=      0.4648731 O_TOT=     26.2575892 <-- SPRD
 Delta: O_D=  0.3512543E-05 O_OD= -0.3559821E-03 O_TOT= -0.3524695E-03 <-- DLTA
 ------------------------------------------------------------------------------
 Cycle:     22
  WF centre and spread    1  (  4.170000,  5.488169,-11.499869 )     2.67413554
  WF centre and spread    2  (  4.170000,  5.488197,-11.499860 )     3.25149277
  WF centre and spread    3  (  4.170000,  5.488208,-11.499861 )     3.03012028
  WF centre and spread    4  (  2.085000,  3.617549,-10.305247 )     2.89316183
  WF centre and spread    5  (  2.085000,  3.523229,-10.428118 )     2.77770996
  WF centre and spread    6  (  2.085000,  3.536929,-10.412258 )     2.97997960
  WF centre and spread    7  (  2.085000,  1.868798, 10.305097 )     2.89321150
  WF centre and spread    8  (  2.085000,  1.963067, 10.427968 )     2.77763195
  WF centre and spread    9  (  2.085000,  1.949355, 10.412112 )     2.97985589
  Sum of centres and spreads ( 25.020001, 32.923499,-34.500037 )    26.25729932
 
     22    -0.290E-03     0.0392238033       26.2572993223       0.42  <-- CONV
        O_D=      0.0201314 O_OD=      0.4645927 O_TOT=     26.2572993 <-- SPRD
 Delta: O_D= -0.9514569E-05 O_OD= -0.2804124E-03 O_TOT= -0.2899269E-03 <-- DLTA
 ------------------------------------------------------------------------------
 Cycle:     23
  WF centre and spread    1  (  4.170000,  5.488169,-11.499869 )     2.67431151
  WF centre and spread    2  (  4.170000,  5.488197,-11.499860 )     3.25030878
  WF centre and spread    3  (  4.170000,  5.488208,-11.499861 )     3.02991855
  WF centre and spread    4  (  2.085000,  3.617600,-10.305307 )     2.89434777
  WF centre and spread    5  (  2.085000,  3.523225,-10.428107 )     2.77734579
  WF centre and spread    6  (  2.085000,  3.536937,-10.412299 )     2.97964708
  WF centre and spread    7  (  2.085000,  1.868746, 10.305157 )     2.89439757
  WF centre and spread    8  (  2.085000,  1.963071, 10.427957 )     2.77726796
  WF centre and spread    9  (  2.085000,  1.949347, 10.412153 )     2.97952316
  Sum of centres and spreads ( 25.020001, 32.923499,-34.500037 )    26.25706818
 
     23    -0.231E-03     0.0343765406       26.2570681755       0.44  <-- CONV
        O_D=      0.0201284 O_OD=      0.4643646 O_TOT=     26.2570682 <-- SPRD
 Delta: O_D= -0.3026972E-05 O_OD= -0.2281199E-03 O_TOT= -0.2311468E-03 <-- DLTA
 ------------------------------------------------------------------------------
 Cycle:     24
  WF centre and spread    1  (  4.170000,  5.488169,-11.499869 )     2.67442949
  WF centre and spread    2  (  4.170000,  5.488197,-11.499860 )     3.24921955
  WF centre and spread    3  (  4.170000,  5.488208,-11.499861 )     3.02960917
  WF centre and spread    4  (  2.085000,  3.617649,-10.305361 )     2.89541766
  WF centre and spread    5  (  2.085000,  3.523228,-10.428103 )     2.77710709
  WF centre and spread    6  (  2.085000,  3.536941,-10.412336 )     2.97937495
  WF centre and spread    7  (  2.085000,  1.868698, 10.305211 )     2.89546765
  WF centre and spread    8  (  2.085000,  1.963067, 10.427953 )     2.77702937
  WF centre and spread    9  (  2.085000,  1.949343, 10.412190 )     2.97925083
  Sum of centres and spreads ( 25.020001, 32.923499,-34.500037 )    26.25690575
 
     24    -0.162E-03     0.0320358819       26.2569057486       0.44  <-- CONV
        O_D=      0.0201337 O_OD=      0.4641969 O_TOT=     26.2569057 <-- SPRD
 Delta: O_D=  0.5283570E-05 O_OD= -0.1677105E-03 O_TOT= -0.1624269E-03 <-- DLTA
 ------------------------------------------------------------------------------
 Cycle:     25
  WF centre and spread    1  (  4.170000,  5.488169,-11.499869 )     2.67442968
  WF centre and spread    2  (  4.170000,  5.488197,-11.499860 )     3.24901244
  WF centre and spread    3  (  4.170000,  5.488208,-11.499861 )     3.02945882
  WF centre and spread    4  (  2.085000,  3.617659,-10.305368 )     2.89558076
  WF centre and spread    5  (  2.085000,  3.523235,-10.428107 )     2.77712055
  WF centre and spread    6  (  2.085000,  3.536939,-10.412343 )     2.97932201
  WF centre and spread    7  (  2.085000,  1.868688, 10.305218 )     2.89563083
  WF centre and spread    8  (  2.085000,  1.963061, 10.427957 )     2.77704282
  WF centre and spread    9  (  2.085000,  1.949345, 10.412196 )     2.97919787
  Sum of centres and spreads ( 25.020001, 32.923499,-34.500037 )    26.25679579
 
     25    -0.110E-03     0.0289650934       26.2567957945       0.46  <-- CONV
        O_D=      0.0201235 O_OD=      0.4640971 O_TOT=     26.2567958 <-- SPRD
 Delta: O_D= -0.1016832E-04 O_OD= -0.9978572E-04 O_TOT= -0.1099540E-03 <-- DLTA
 ------------------------------------------------------------------------------
 Cycle:     26
  WF centre and spread    1  (  4.170000,  5.488169,-11.499869 )     2.67444781
  WF centre and spread    2  (  4.170000,  5.488197,-11.499860 )     3.24855310
  WF centre and spread    3  (  4.170000,  5.488208,-11.499861 )     3.02915049
  WF centre and spread    4  (  2.085000,  3.617683,-10.305385 )     2.89596741
  WF centre and spread    5  (  2.085000,  3.523250,-10.428117 )     2.77716666
  WF centre and spread    6  (  2.085000,  3.536933,-10.412358 )     2.97921044
  WF centre and spread    7  (  2.085000,  1.868664, 10.305235 )     2.89601765
  WF centre and spread    8  (  2.085000,  1.963046, 10.427967 )     2.77708890
  WF centre and spread    9  (  2.085000,  1.949350, 10.412211 )     2.97908624
  Sum of centres and spreads ( 25.020001, 32.923499,-34.500037 )    26.25668868
 
     26    -0.107E-03     0.0240182108       26.2566886803       0.47  <-- CONV
        O_D=      0.0201201 O_OD=      0.4639934 O_TOT=     26.2566887 <-- SPRD
 Delta: O_D= -0.3397739E-05 O_OD= -0.1037165E-03 O_TOT= -0.1071143E-03 <-- DLTA
 ------------------------------------------------------------------------------
 Cycle:     27
  WF centre and spread    1  (  4.170000,  5.488169,-11.499869 )     2.67450007
  WF centre and spread    2  (  4.170000,  5.488197,-11.499860 )     3.24790799
  WF centre and spread    3  (  4.170000,  5.488208,-11.499861 )     3.02876741
  WF centre and spread    4  (  2.085000,  3.617719,-10.305409 )     2.89652046
  WF centre and spread    5  (  2.085000,  3.523270,-10.428130 )     2.77721878
  WF centre and spread    6  (  2.085000,  3.536926,-10.412381 )     2.97904670
  WF centre and spread    7  (  2.085000,  1.868628, 10.305259 )     2.89657092
  WF centre and spread    8  (  2.085000,  1.963025, 10.427981 )     2.77714098
  WF centre and spread    9  (  2.085000,  1.949358, 10.412234 )     2.97892241
  Sum of centres and spreads ( 25.020001, 32.923499,-34.500037 )    26.25659571
 
     27    -0.930E-04     0.0211164592       26.2565957094       0.48  <-- CONV
        O_D=      0.0201201 O_OD=      0.4639004 O_TOT=     26.2565957 <-- SPRD
 Delta: O_D=  0.1038390E-07 O_OD= -0.9298126E-04 O_TOT= -0.9297088E-04 <-- DLTA
 ------------------------------------------------------------------------------
 Cycle:     28
  WF centre and spread    1  (  4.170000,  5.488169,-11.499869 )     2.67458309
  WF centre and spread    2  (  4.170000,  5.488197,-11.499860 )     3.24716080
  WF centre and spread    3  (  4.170000,  5.488208,-11.499861 )     3.02837033
  WF centre and spread    4  (  2.085000,  3.617765,-10.305440 )     2.89719463
  WF centre and spread    5  (  2.085000,  3.523293,-10.428144 )     2.77724803
  WF centre and spread    6  (  2.085000,  3.536915,-10.412410 )     2.97883187
  WF centre and spread    7  (  2.085000,  1.868582, 10.305290 )     2.89724531
  WF centre and spread    8  (  2.085000,  1.963002, 10.427994 )     2.77717022
  WF centre and spread    9  (  2.085000,  1.949369, 10.412263 )     2.97870746
  Sum of centres and spreads ( 25.020001, 32.923499,-34.500037 )    26.25651174
 
     28    -0.840E-04     0.0208444709       26.2565117392       0.49  <-- CONV
        O_D=      0.0201174 O_OD=      0.4638191 O_TOT=     26.2565117 <-- SPRD
 Delta: O_D= -0.2684790E-05 O_OD= -0.8128541E-04 O_TOT= -0.8397020E-04 <-- DLTA
 ------------------------------------------------------------------------------
 Cycle:     29
  WF centre and spread    1  (  4.170000,  5.488169,-11.499869 )     2.67467189
  WF centre and spread    2  (  4.170000,  5.488197,-11.499860 )     3.24651216
  WF centre and spread    3  (  4.170000,  5.488208,-11.499861 )     3.02807211
  WF centre and spread    4  (  2.085000,  3.617812,-10.305467 )     2.89782887
  WF centre and spread    5  (  2.085000,  3.523311,-10.428154 )     2.77723356
  WF centre and spread    6  (  2.085000,  3.536903,-10.412438 )     2.97861010
  WF centre and spread    7  (  2.085000,  1.868535, 10.305317 )     2.89787972
  WF centre and spread    8  (  2.085000,  1.962985, 10.428004 )     2.77715575
  WF centre and spread    9  (  2.085000,  1.949381, 10.412292 )     2.97848557
  Sum of centres and spreads ( 25.020001, 32.923499,-34.500037 )    26.25644973
 
     29    -0.620E-04     0.0184739790       26.2564497339       0.50  <-- CONV
        O_D=      0.0201170 O_OD=      0.4637575 O_TOT=     26.2564497 <-- SPRD
 Delta: O_D= -0.3963807E-06 O_OD= -0.6160894E-04 O_TOT= -0.6200532E-04 <-- DLTA
 ------------------------------------------------------------------------------
 Cycle:     30
  WF centre and spread    1  (  4.170000,  5.488169,-11.499869 )     2.67474461
  WF centre and spread    2  (  4.170000,  5.488197,-11.499860 )     3.24607263
  WF centre and spread    3  (  4.170000,  5.488208,-11.499861 )     3.02791318
  WF centre and spread    4  (  2.085000,  3.617852,-10.305487 )     2.89831718
  WF centre and spread    5  (  2.085000,  3.523320,-10.428158 )     2.77718128
  WF centre and spread    6  (  2.085000,  3.536889,-10.412461 )     2.97841838
  WF centre and spread    7  (  2.085000,  1.868495, 10.305337 )     2.89836812
  WF centre and spread    8  (  2.085000,  1.962976, 10.428008 )     2.77710350
  WF centre and spread    9  (  2.085000,  1.949394, 10.412314 )     2.97829377
  Sum of centres and spreads ( 25.020001, 32.923499,-34.500037 )    26.25641266
 
     30    -0.371E-04     0.0146485056       26.2564126608       0.52  <-- CONV
        O_D=      0.0201200 O_OD=      0.4637174 O_TOT=     26.2564127 <-- SPRD
 Delta: O_D=  0.2970565E-05 O_OD= -0.4004360E-04 O_TOT= -0.3707303E-04 <-- DLTA
 ------------------------------------------------------------------------------
 Cycle:     31
  WF centre and spread    1  (  4.170000,  5.488169,-11.499869 )     2.67475028
  WF centre and spread    2  (  4.170000,  5.488197,-11.499860 )     3.24605040
  WF centre and spread    3  (  4.170000,  5.488208,-11.499861 )     3.02792673
  WF centre and spread    4  (  2.085000,  3.617859,-10.305488 )     2.89837109
  WF centre and spread    5  (  2.085000,  3.523318,-10.428156 )     2.77714907
  WF centre and spread    6  (  2.085000,  3.536885,-10.412464 )     2.97838367
  WF centre and spread    7  (  2.085000,  1.868488, 10.305338 )     2.89842202
  WF centre and spread    8  (  2.085000,  1.962978, 10.428006 )     2.77707130
  WF centre and spread    9  (  2.085000,  1.949398, 10.412317 )     2.97825905
  Sum of centres and spreads ( 25.020001, 32.923499,-34.500037 )    26.25638361
 
     31    -0.291E-04     0.0164228758       26.2563836054       0.53  <-- CONV
        O_D=      0.0201186 O_OD=      0.4636898 O_TOT=     26.2563836 <-- SPRD
 Delta: O_D= -0.1374191E-05 O_OD= -0.2768126E-04 O_TOT= -0.2905545E-04 <-- DLTA
 ------------------------------------------------------------------------------
 Cycle:     32
  WF centre and spread    1  (  4.170000,  5.488169,-11.499869 )     2.67477232
  WF centre and spread    2  (  4.170000,  5.488197,-11.499860 )     3.24597476
  WF centre and spread    3  (  4.170000,  5.488208,-11.499861 )     3.02798047
  WF centre and spread    4  (  2.085000,  3.617885,-10.305493 )     2.89856773
  WF centre and spread    5  (  2.085000,  3.523311,-10.428150 )     2.77704701
  WF centre and spread    6  (  2.085000,  3.536871,-10.412474 )     2.97827032
  WF centre and spread    7  (  2.085000,  1.868461, 10.305343 )     2.89861864
  WF centre and spread    8  (  2.085000,  1.962984, 10.428000 )     2.77696930
  WF centre and spread    9  (  2.085000,  1.949413, 10.412327 )     2.97814568
  Sum of centres and spreads ( 25.020001, 32.923499,-34.500037 )    26.25634622
 
     32    -0.374E-04     0.0122651939       26.2563462222       0.54  <-- CONV
        O_D=      0.0201200 O_OD=      0.4636510 O_TOT=     26.2563462 <-- SPRD
 Delta: O_D=  0.1358947E-05 O_OD= -0.3874210E-04 O_TOT= -0.3738315E-04 <-- DLTA
 ------------------------------------------------------------------------------
 Cycle:     33
  WF centre and spread    1  (  4.170000,  5.488169,-11.499869 )     2.67480153
  WF centre and spread    2  (  4.170000,  5.488197,-11.499860 )     3.24585040
  WF centre and spread    3  (  4.170000,  5.488208,-11.499861 )     3.02804765
  WF centre and spread    4  (  2.085000,  3.617925,-10.305500 )     2.89885608
  WF centre and spread    5  (  2.085000,  3.523304,-10.428143 )     2.77690901
  WF centre and spread    6  (  2.085000,  3.536848,-10.412489 )     2.97811571
  WF centre and spread    7  (  2.085000,  1.868422, 10.305350 )     2.89890696
  WF centre and spread    8  (  2.085000,  1.962992, 10.427993 )     2.77683136
  WF centre and spread    9  (  2.085000,  1.949436, 10.412342 )     2.97799104
  Sum of centres and spreads ( 25.020001, 32.923499,-34.500037 )    26.25630974
 
     33    -0.365E-04     0.0131922131       26.2563097408       0.55  <-- CONV
        O_D=      0.0201238 O_OD=      0.4636108 O_TOT=     26.2563097 <-- SPRD
 Delta: O_D=  0.3761243E-05 O_OD= -0.4024270E-04 O_TOT= -0.3648146E-04 <-- DLTA
 ------------------------------------------------------------------------------
 Cycle:     34
  WF centre and spread    1  (  4.170000,  5.488169,-11.499869 )     2.67483291
  WF centre and spread    2  (  4.170000,  5.488197,-11.499860 )     3.24568085
  WF centre and spread    3  (  4.170000,  5.488208,-11.499861 )     3.02809809
  WF centre and spread    4  (  2.085000,  3.617973,-10.305510 )     2.89918920
  WF centre and spread    5  (  2.085000,  3.523298,-10.428136 )     2.77677019
  WF centre and spread    6  (  2.085000,  3.536821,-10.412507 )     2.97794923
  WF centre and spread    7  (  2.085000,  1.868374, 10.305360 )     2.89924007
  WF centre and spread    8  (  2.085000,  1.962998, 10.427987 )     2.77669261
  WF centre and spread    9  (  2.085000,  1.949463, 10.412360 )     2.97782453
  Sum of centres and spreads ( 25.020001, 32.923499,-34.500037 )    26.25627768
 
     34    -0.321E-04     0.0129415263       26.2562776774       0.56  <-- CONV
        O_D=      0.0201271 O_OD=      0.4635753 O_TOT=     26.2562777 <-- SPRD
 Delta: O_D=  0.3370145E-05 O_OD= -0.3543352E-04 O_TOT= -0.3206337E-04 <-- DLTA
 ------------------------------------------------------------------------------
 Cycle:     35
  WF centre and spread    1  (  4.170000,  5.488169,-11.499869 )     2.67486582
  WF centre and spread    2  (  4.170000,  5.488197,-11.499860 )     3.24545215
  WF centre and spread    3  (  4.170000,  5.488208,-11.499861 )     3.02810626
  WF centre and spread    4  (  2.085000,  3.618028,-10.305521 )     2.89955940
  WF centre and spread    5  (  2.085000,  3.523295,-10.428133 )     2.77665166
  WF centre and spread    6  (  2.085000,  3.536788,-10.412527 )     2.97777735
  WF centre and spread    7  (  2.085000,  1.868319, 10.305371 )     2.89961027
  WF centre and spread    8  (  2.085000,  1.963000, 10.427983 )     2.77657415
  WF centre and spread    9  (  2.085000,  1.949496, 10.412381 )     2.97765261
  Sum of centres and spreads ( 25.020001, 32.923499,-34.500037 )    26.25624965
 
     35    -0.280E-04     0.0116023372       26.2562496519       0.57  <-- CONV
        O_D=      0.0201316 O_OD=      0.4635429 O_TOT=     26.2562497 <-- SPRD
 Delta: O_D=  0.4459289E-05 O_OD= -0.3248481E-04 O_TOT= -0.2802552E-04 <-- DLTA
 ------------------------------------------------------------------------------
 Cycle:     36
  WF centre and spread    1  (  4.170000,  5.488169,-11.499869 )     2.67489679
  WF centre and spread    2  (  4.170000,  5.488197,-11.499860 )     3.24518589
  WF centre and spread    3  (  4.170000,  5.488208,-11.499861 )     3.02806275
  WF centre and spread    4  (  2.085000,  3.618087,-10.305533 )     2.89993936
  WF centre and spread    5  (  2.085000,  3.523296,-10.428131 )     2.77656756
  WF centre and spread    6  (  2.085000,  3.536752,-10.412549 )     2.97760890
  WF centre and spread    7  (  2.085000,  1.868260, 10.305383 )     2.89999026
  WF centre and spread    8  (  2.085000,  1.962999, 10.427981 )     2.77649012
  WF centre and spread    9  (  2.085000,  1.949532, 10.412403 )     2.97748413
  Sum of centres and spreads ( 25.020001, 32.923499,-34.500037 )    26.25622577
 
     36    -0.239E-04     0.0115862418       26.2562257670       0.58  <-- CONV
        O_D=      0.0201375 O_OD=      0.4635131 O_TOT=     26.2562258 <-- SPRD
 Delta: O_D=  0.5877020E-05 O_OD= -0.2976195E-04 O_TOT= -0.2388493E-04 <-- DLTA
 ------------------------------------------------------------------------------
 Cycle:     37
  WF centre and spread    1  (  4.170000,  5.488169,-11.499869 )     2.67489832
  WF centre and spread    2  (  4.170000,  5.488197,-11.499860 )     3.24513805
  WF centre and spread    3  (  4.170000,  5.488208,-11.499861 )     3.02802080
  WF centre and spread    4  (  2.085000,  3.618095,-10.305534 )     2.89997709
  WF centre and spread    5  (  2.085000,  3.523299,-10.428133 )     2.77658262
  WF centre and spread    6  (  2.085000,  3.536746,-10.412552 )     2.97759043
  WF centre and spread    7  (  2.085000,  1.868252, 10.305384 )     2.90002801
  WF centre and spread    8  (  2.085000,  1.962997, 10.427983 )     2.77650517
  WF centre and spread    9  (  2.085000,  1.949538, 10.412405 )     2.97746565
  Sum of centres and spreads ( 25.020001, 32.923499,-34.500037 )    26.25620615
 
     37    -0.196E-04     0.0125277249       26.2562061545       0.60  <-- CONV
        O_D=      0.0201362 O_OD=      0.4634948 O_TOT=     26.2562062 <-- SPRD
 Delta: O_D= -0.1290681E-05 O_OD= -0.1832181E-04 O_TOT= -0.1961250E-04 <-- DLTA
 ------------------------------------------------------------------------------
 Cycle:     38
  WF centre and spread    1  (  4.170000,  5.488169,-11.499869 )     2.67490567
  WF centre and spread    2  (  4.170000,  5.488197,-11.499860 )     3.24502560
  WF centre and spread    3  (  4.170000,  5.488208,-11.499861 )     3.02792880
  WF centre and spread    4  (  2.085000,  3.618116,-10.305536 )     2.90007091
  WF centre and spread    5  (  2.085000,  3.523304,-10.428137 )     2.77662145
  WF centre and spread    6  (  2.085000,  3.536730,-10.412558 )     2.97754642
  WF centre and spread    7  (  2.085000,  1.868231, 10.305386 )     2.90012187
  WF centre and spread    8  (  2.085000,  1.962991, 10.427988 )     2.77654398
  WF centre and spread    9  (  2.085000,  1.949553, 10.412412 )     2.97742164
  Sum of centres and spreads ( 25.020001, 32.923499,-34.500037 )    26.25618635
 
     38    -0.198E-04     0.0100903282       26.2561863461       0.61  <-- CONV
        O_D=      0.0201366 O_OD=      0.4634745 O_TOT=     26.2561863 <-- SPRD
 Delta: O_D=  0.4148110E-06 O_OD= -0.2022321E-04 O_TOT= -0.1980840E-04 <-- DLTA
 ------------------------------------------------------------------------------
 Cycle:     39
  WF centre and spread    1  (  4.170000,  5.488169,-11.499870 )     2.67492092
  WF centre and spread    2  (  4.170000,  5.488197,-11.499860 )     3.24486222
  WF centre and spread    3  (  4.170000,  5.488208,-11.499861 )     3.02780933
  WF centre and spread    4  (  2.085000,  3.618150,-10.305539 )     2.90021232
  WF centre and spread    5  (  2.085000,  3.523313,-10.428144 )     2.77667401
  WF centre and spread    6  (  2.085000,  3.536705,-10.412568 )     2.97747662
  WF centre and spread    7  (  2.085000,  1.868197, 10.305389 )     2.90026333
  WF centre and spread    8  (  2.085000,  1.962982, 10.427994 )     2.77659653
  WF centre and spread    9  (  2.085000,  1.949579, 10.412422 )     2.97735185
  Sum of centres and spreads ( 25.020001, 32.923499,-34.500037 )    26.25616713
 
     39    -0.192E-04     0.0093441558       26.2561671261       0.62  <-- CONV
        O_D=      0.0201390 O_OD=      0.4634529 O_TOT=     26.2561671 <-- SPRD
 Delta: O_D=  0.2428307E-05 O_OD= -0.2164827E-04 O_TOT= -0.1921996E-04 <-- DLTA
 ------------------------------------------------------------------------------
 Cycle:     40
  WF centre and spread    1  (  4.170000,  5.488169,-11.499870 )     2.67494138
  WF centre and spread    2  (  4.170000,  5.488197,-11.499860 )     3.24466298
  WF centre and spread    3  (  4.170000,  5.488208,-11.499861 )     3.02767749
  WF centre and spread    4  (  2.085000,  3.618199,-10.305542 )     2.90040324
  WF centre and spread    5  (  2.085000,  3.523324,-10.428151 )     2.77672860
  WF centre and spread    6  (  2.085000,  3.536667,-10.412583 )     2.97737616
  WF centre and spread    7  (  2.085000,  1.868148, 10.305392 )     2.90045431
  WF centre and spread    8  (  2.085000,  1.962972, 10.428001 )     2.77665112
  WF centre and spread    9  (  2.085000,  1.949617, 10.412436 )     2.97725138
  Sum of centres and spreads ( 25.020001, 32.923499,-34.500037 )    26.25614665
 
     40    -0.205E-04     0.0098203015       26.2561466523       0.63  <-- CONV
        O_D=      0.0201424 O_OD=      0.4634291 O_TOT=     26.2561467 <-- SPRD
 Delta: O_D=  0.3345679E-05 O_OD= -0.2381951E-04 O_TOT= -0.2047384E-04 <-- DLTA
 ------------------------------------------------------------------------------
 Cycle:     41
  WF centre and spread    1  (  4.170000,  5.488169,-11.499870 )     2.67495890
  WF centre and spread    2  (  4.170000,  5.488197,-11.499860 )     3.24448221
  WF centre and spread    3  (  4.170000,  5.488208,-11.499861 )     3.02757238
  WF centre and spread    4  (  2.085000,  3.618257,-10.305544 )     2.90061138
  WF centre and spread    5  (  2.085000,  3.523332,-10.428156 )     2.77676368
  WF centre and spread    6  (  2.085000,  3.536622,-10.412598 )     2.97725761
  WF centre and spread    7  (  2.085000,  1.868090, 10.305394 )     2.90066250
  WF centre and spread    8  (  2.085000,  1.962963, 10.428006 )     2.77668619
  WF centre and spread    9  (  2.085000,  1.949662, 10.412452 )     2.97713282
  Sum of centres and spreads ( 25.020001, 32.923499,-34.500037 )    26.25612767
 
     41    -0.190E-04     0.0096527652       26.2561276663       0.64  <-- CONV
        O_D=      0.0201473 O_OD=      0.4634052 O_TOT=     26.2561277 <-- SPRD
 Delta: O_D=  0.4909786E-05 O_OD= -0.2389576E-04 O_TOT= -0.1898597E-04 <-- DLTA
 ------------------------------------------------------------------------------
 Cycle:     42
  WF centre and spread    1  (  4.170000,  5.488169,-11.499870 )     2.67496857
  WF centre and spread    2  (  4.170000,  5.488197,-11.499860 )     3.24435747
  WF centre and spread    3  (  4.170000,  5.488208,-11.499861 )     3.02751778
  WF centre and spread    4  (  2.085000,  3.618317,-10.305544 )     2.90080935
  WF centre and spread    5  (  2.085000,  3.523337,-10.428158 )     2.77676737
  WF centre and spread    6  (  2.085000,  3.536574,-10.412613 )     2.97713289
  WF centre and spread    7  (  2.085000,  1.868030, 10.305395 )     2.90086049
  WF centre and spread    8  (  2.085000,  1.962959, 10.428008 )     2.77668990
  WF centre and spread    9  (  2.085000,  1.949710, 10.412467 )     2.97700810
  Sum of centres and spreads ( 25.020001, 32.923499,-34.500037 )    26.25611192
 
     42    -0.157E-04     0.0087615374       26.2561119178       0.65  <-- CONV
        O_D=      0.0201535 O_OD=      0.4633832 O_TOT=     26.2561119 <-- SPRD
 Delta: O_D=  0.6237123E-05 O_OD= -0.2198566E-04 O_TOT= -0.1574853E-04 <-- DLTA
 ------------------------------------------------------------------------------
 Cycle:     43
  WF centre and spread    1  (  4.170000,  5.488169,-11.499870 )     2.67496446
  WF centre and spread    2  (  4.170000,  5.488197,-11.499860 )     3.24437355
  WF centre and spread    3  (  4.170000,  5.488208,-11.499861 )     3.02753594
  WF centre and spread    4  (  2.085000,  3.618323,-10.305543 )     2.90081717
  WF centre and spread    5  (  2.085000,  3.523335,-10.428157 )     2.77675034
  WF centre and spread    6  (  2.085000,  3.536568,-10.412614 )     2.97711986
  WF centre and spread    7  (  2.085000,  1.868024, 10.305393 )     2.90086830
  WF centre and spread    8  (  2.085000,  1.962961, 10.428007 )     2.77667287
  WF centre and spread    9  (  2.085000,  1.949716, 10.412468 )     2.97699507
  Sum of centres and spreads ( 25.020001, 32.923499,-34.500037 )    26.25609757
 
     43    -0.144E-04     0.0118113357       26.2560975667       0.66  <-- CONV
        O_D=      0.0201532 O_OD=      0.4633691 O_TOT=     26.2560976 <-- SPRD
 Delta: O_D= -0.2868839E-06 O_OD= -0.1406419E-04 O_TOT= -0.1435107E-04 <-- DLTA
 ------------------------------------------------------------------------------
 Cycle:     44
  WF centre and spread    1  (  4.170000,  5.488169,-11.499870 )     2.67495213
  WF centre and spread    2  (  4.170000,  5.488197,-11.499860 )     3.24443061
  WF centre and spread    3  (  4.170000,  5.488208,-11.499861 )     3.02760361
  WF centre and spread    4  (  2.085000,  3.618345,-10.305540 )     2.90084794
  WF centre and spread    5  (  2.085000,  3.523329,-10.428153 )     2.77669623
  WF centre and spread    6  (  2.085000,  3.536547,-10.412617 )     2.97707829
  WF centre and spread    7  (  2.085000,  1.868001, 10.305390 )     2.90089905
  WF centre and spread    8  (  2.085000,  1.962967, 10.428003 )     2.77661878
  WF centre and spread    9  (  2.085000,  1.949737, 10.412470 )     2.97695351
  Sum of centres and spreads ( 25.020001, 32.923499,-34.500037 )    26.25608016
 
     44    -0.174E-04     0.0083859987       26.2560801575       0.68  <-- CONV
        O_D=      0.0201551 O_OD=      0.4633499 O_TOT=     26.2560802 <-- SPRD
 Delta: O_D=  0.1853469E-05 O_OD= -0.1926262E-04 O_TOT= -0.1740915E-04 <-- DLTA
 ------------------------------------------------------------------------------
 Cycle:     45
  WF centre and spread    1  (  4.170000,  5.488169,-11.499870 )     2.67493539
  WF centre and spread    2  (  4.170000,  5.488197,-11.499860 )     3.24450670
  WF centre and spread    3  (  4.170000,  5.488208,-11.499861 )     3.02770192
  WF centre and spread    4  (  2.085000,  3.618381,-10.305534 )     2.90089491
  WF centre and spread    5  (  2.085000,  3.523321,-10.428147 )     2.77662038
  WF centre and spread    6  (  2.085000,  3.536514,-10.412622 )     2.97701938
  WF centre and spread    7  (  2.085000,  1.867966, 10.305384 )     2.90094598
  WF centre and spread    8  (  2.085000,  1.962974, 10.427997 )     2.77654297
  WF centre and spread    9  (  2.085000,  1.949770, 10.412475 )     2.97689460
  Sum of centres and spreads ( 25.020001, 32.923499,-34.500037 )    26.25606224
 
     45    -0.179E-04     0.0091061287       26.2560622395       0.69  <-- CONV
        O_D=      0.0201594 O_OD=      0.4633276 O_TOT=     26.2560622 <-- SPRD
 Delta: O_D=  0.4343681E-05 O_OD= -0.2226170E-04 O_TOT= -0.1791802E-04 <-- DLTA
 ------------------------------------------------------------------------------
 Cycle:     46
  WF centre and spread    1  (  4.170000,  5.488169,-11.499870 )     2.67492018
  WF centre and spread    2  (  4.170000,  5.488197,-11.499860 )     3.24457552
  WF centre and spread    3  (  4.170000,  5.488208,-11.499861 )     3.02780598
  WF centre and spread    4  (  2.085000,  3.618427,-10.305528 )     2.90095385
  WF centre and spread    5  (  2.085000,  3.523314,-10.428141 )     2.77654202
  WF centre and spread    6  (  2.085000,  3.536471,-10.412629 )     2.97695132
  WF centre and spread    7  (  2.085000,  1.867920, 10.305378 )     2.90100487
  WF centre and spread    8  (  2.085000,  1.962982, 10.427991 )     2.77646464
  WF centre and spread    9  (  2.085000,  1.949813, 10.412482 )     2.97682655
  Sum of centres and spreads ( 25.020001, 32.923499,-34.500037 )    26.25604493
 
     46    -0.173E-04     0.0092588263       26.2560449312       0.70  <-- CONV
        O_D=      0.0201646 O_OD=      0.4633051 O_TOT=     26.2560449 <-- SPRD
 Delta: O_D=  0.5149424E-05 O_OD= -0.2245776E-04 O_TOT= -0.1730833E-04 <-- DLTA
 ------------------------------------------------------------------------------
 Cycle:     47
  WF centre and spread    1  (  4.170000,  5.488169,-11.499870 )     2.67491010
  WF centre and spread    2  (  4.170000,  5.488197,-11.499860 )     3.24461523
  WF centre and spread    3  (  4.170000,  5.488208,-11.499861 )     3.02789540
  WF centre and spread    4  (  2.085000,  3.618487,-10.305522 )     2.90102980
  WF centre and spread    5  (  2.085000,  3.523308,-10.428136 )     2.77647619
  WF centre and spread    6  (  2.085000,  3.536416,-10.412638 )     2.97687299
  WF centre and spread    7  (  2.085000,  1.867860, 10.305372 )     2.90108079
  WF centre and spread    8  (  2.085000,  1.962988, 10.427987 )     2.77639885
  WF centre and spread    9  (  2.085000,  1.949868, 10.412491 )     2.97674823
  Sum of centres and spreads ( 25.020001, 32.923499,-34.500037 )    26.25602760
 
     47    -0.173E-04     0.0088001559       26.2560275956       0.71  <-- CONV
        O_D=      0.0201715 O_OD=      0.4632809 O_TOT=     26.2560276 <-- SPRD
 Delta: O_D=  0.6908654E-05 O_OD= -0.2424425E-04 O_TOT= -0.1733560E-04 <-- DLTA
 ------------------------------------------------------------------------------
 Cycle:     48
  WF centre and spread    1  (  4.170000,  5.488169,-11.499870 )     2.67490408
  WF centre and spread    2  (  4.170000,  5.488197,-11.499860 )     3.24461620
  WF centre and spread    3  (  4.170000,  5.488208,-11.499861 )     3.02795173
  WF centre and spread    4  (  2.085000,  3.618561,-10.305516 )     2.90113004
  WF centre and spread    5  (  2.085000,  3.523305,-10.428134 )     2.77643277
  WF centre and spread    6  (  2.085000,  3.536348,-10.412650 )     2.97678150
  WF centre and spread    7  (  2.085000,  1.867786, 10.305366 )     2.90118101
  WF centre and spread    8  (  2.085000,  1.962991, 10.427984 )     2.77635547
  WF centre and spread    9  (  2.085000,  1.949936, 10.412504 )     2.97665677
  Sum of centres and spreads ( 25.020001, 32.923499,-34.500037 )    26.25600957
 
     48    -0.180E-04     0.0095302020       26.2560095693       0.72  <-- CONV
        O_D=      0.0201807 O_OD=      0.4632537 O_TOT=     26.2560096 <-- SPRD
 Delta: O_D=  0.9226428E-05 O_OD= -0.2725269E-04 O_TOT= -0.1802626E-04 <-- DLTA
 ------------------------------------------------------------------------------
 Cycle:     49
  WF centre and spread    1  (  4.170000,  5.488169,-11.499870 )     2.67490562
  WF centre and spread    2  (  4.170000,  5.488197,-11.499860 )     3.24458533
  WF centre and spread    3  (  4.170000,  5.488208,-11.499861 )     3.02791769
  WF centre and spread    4  (  2.085000,  3.618568,-10.305515 )     2.90114357
  WF centre and spread    5  (  2.085000,  3.523307,-10.428136 )     2.77645154
  WF centre and spread    6  (  2.085000,  3.536341,-10.412652 )     2.97677241
  WF centre and spread    7  (  2.085000,  1.867778, 10.305366 )     2.90119455
  WF centre and spread    8  (  2.085000,  1.962988, 10.427986 )     2.77637423
  WF centre and spread    9  (  2.085000,  1.949943, 10.412505 )     2.97664768
  Sum of centres and spreads ( 25.020001, 32.923499,-34.500037 )    26.25599264
 
     49    -0.169E-04     0.0117198900       26.2559926367       0.73  <-- CONV
        O_D=      0.0201798 O_OD=      0.4632377 O_TOT=     26.2559926 <-- SPRD
 Delta: O_D= -0.9530669E-06 O_OD= -0.1597957E-04 O_TOT= -0.1693263E-04 <-- DLTA
 ------------------------------------------------------------------------------
 Cycle:     50
  WF centre and spread    1  (  4.170000,  5.488169,-11.499870 )     2.67491186
  WF centre and spread    2  (  4.170000,  5.488197,-11.499860 )     3.24451455
  WF centre and spread    3  (  4.170000,  5.488208,-11.499861 )     3.02784353
  WF centre and spread    4  (  2.085000,  3.618588,-10.305515 )     2.90117679
  WF centre and spread    5  (  2.085000,  3.523312,-10.428140 )     2.77649962
  WF centre and spread    6  (  2.085000,  3.536323,-10.412656 )     2.97675193
  WF centre and spread    7  (  2.085000,  1.867759, 10.305365 )     2.90122779
  WF centre and spread    8  (  2.085000,  1.962983, 10.427990 )     2.77642229
  WF centre and spread    9  (  2.085000,  1.949961, 10.412509 )     2.97662721
  Sum of centres and spreads ( 25.020001, 32.923499,-34.500037 )    26.25597556
 
     50    -0.171E-04     0.0093453912       26.2559755593       0.74  <-- CONV
        O_D=      0.0201804 O_OD=      0.4632200 O_TOT=     26.2559756 <-- SPRD
 Delta: O_D=  0.5920666E-06 O_OD= -0.1766945E-04 O_TOT= -0.1707738E-04 <-- DLTA
 ------------------------------------------------------------------------------
 Cycle:     51
  WF centre and spread    1  (  4.170000,  5.488169,-11.499870 )     2.67492285
  WF centre and spread    2  (  4.170000,  5.488197,-11.499860 )     3.24441699
  WF centre and spread    3  (  4.170000,  5.488208,-11.499861 )     3.02774962
  WF centre and spread    4  (  2.085000,  3.618619,-10.305514 )     2.90122235
  WF centre and spread    5  (  2.085000,  3.523320,-10.428145 )     2.77656721
  WF centre and spread    6  (  2.085000,  3.536293,-10.412661 )     2.97672064
  WF centre and spread    7  (  2.085000,  1.867728, 10.305364 )     2.90127338
  WF centre and spread    8  (  2.085000,  1.962976, 10.427995 )     2.77648986
  WF centre and spread    9  (  2.085000,  1.949990, 10.412515 )     2.97659594
  Sum of centres and spreads ( 25.020001, 32.923499,-34.500037 )    26.25595884
 
     51    -0.167E-04     0.0087088812       26.2559588403       0.76  <-- CONV
        O_D=      0.0201831 O_OD=      0.4632006 O_TOT=     26.2559588 <-- SPRD
 Delta: O_D=  0.2706535E-05 O_OD= -0.1942559E-04 O_TOT= -0.1671905E-04 <-- DLTA
 ------------------------------------------------------------------------------
 Cycle:     52
  WF centre and spread    1  (  4.170000,  5.488169,-11.499870 )     2.67493458
  WF centre and spread    2  (  4.170000,  5.488197,-11.499860 )     3.24430816
  WF centre and spread    3  (  4.170000,  5.488208,-11.499861 )     3.02765000
  WF centre and spread    4  (  2.085000,  3.618665,-10.305511 )     2.90128074
  WF centre and spread    5  (  2.085000,  3.523329,-10.428152 )     2.77664319
  WF centre and spread    6  (  2.085000,  3.536250,-10.412670 )     2.97667560
  WF centre and spread    7  (  2.085000,  1.867681, 10.305361 )     2.90133181
  WF centre and spread    8  (  2.085000,  1.962967, 10.428002 )     2.77656581
  WF centre and spread    9  (  2.085000,  1.950034, 10.412523 )     2.97655092
  Sum of centres and spreads ( 25.020001, 32.923499,-34.500037 )    26.25594080
 
     52    -0.180E-04     0.0091639160       26.2559408035       0.77  <-- CONV
        O_D=      0.0201869 O_OD=      0.4631787 O_TOT=     26.2559408 <-- SPRD
 Delta: O_D=  0.3888750E-05 O_OD= -0.2192554E-04 O_TOT= -0.1803679E-04 <-- DLTA
 ------------------------------------------------------------------------------
 Cycle:     53
  WF centre and spread    1  (  4.170000,  5.488169,-11.499870 )     2.67493939
  WF centre and spread    2  (  4.170000,  5.488197,-11.499860 )     3.24422553
  WF centre and spread    3  (  4.170000,  5.488208,-11.499861 )     3.02757619
  WF centre and spread    4  (  2.085000,  3.618721,-10.305506 )     2.90134376
  WF centre and spread    5  (  2.085000,  3.523336,-10.428157 )     2.77670279
  WF centre and spread    6  (  2.085000,  3.536196,-10.412678 )     2.97662019
  WF centre and spread    7  (  2.085000,  1.867625, 10.305357 )     2.90139486
  WF centre and spread    8  (  2.085000,  1.962960, 10.428007 )     2.77662540
  WF centre and spread    9  (  2.085000,  1.950087, 10.412532 )     2.97649552
  Sum of centres and spreads ( 25.020001, 32.923499,-34.500037 )    26.25592362
 
     53    -0.172E-04     0.0091291901       26.2559236248       0.78  <-- CONV
        O_D=      0.0201926 O_OD=      0.4631558 O_TOT=     26.2559236 <-- SPRD
 Delta: O_D=  0.5642092E-05 O_OD= -0.2282072E-04 O_TOT= -0.1717863E-04 <-- DLTA
 ------------------------------------------------------------------------------
 Cycle:     54
  WF centre and spread    1  (  4.170000,  5.488169,-11.499870 )     2.67493355
  WF centre and spread    2  (  4.170000,  5.488197,-11.499860 )     3.24419337
  WF centre and spread    3  (  4.170000,  5.488208,-11.499861 )     3.02754776
  WF centre and spread    4  (  2.085000,  3.618781,-10.305500 )     2.90140612
  WF centre and spread    5  (  2.085000,  3.523339,-10.428159 )     2.77672966
  WF centre and spread    6  (  2.085000,  3.536138,-10.412687 )     2.97655678
  WF centre and spread    7  (  2.085000,  1.867566, 10.305350 )     2.90145723
  WF centre and spread    8  (  2.085000,  1.962957, 10.428009 )     2.77665226
  WF centre and spread    9  (  2.085000,  1.950145, 10.412540 )     2.97643212
  Sum of centres and spreads ( 25.020001, 32.923499,-34.500037 )    26.25590886
 
     54    -0.148E-04     0.0083937473       26.2559088600       0.79  <-- CONV
        O_D=      0.0201995 O_OD=      0.4631342 O_TOT=     26.2559089 <-- SPRD
 Delta: O_D=  0.6894790E-05 O_OD= -0.2165966E-04 O_TOT= -0.1476487E-04 <-- DLTA
 ------------------------------------------------------------------------------
 Cycle:     55
  WF centre and spread    1  (  4.170000,  5.488169,-11.499870 )     2.67492776
  WF centre and spread    2  (  4.170000,  5.488197,-11.499860 )     3.24421381
  WF centre and spread    3  (  4.170000,  5.488208,-11.499861 )     3.02756623
  WF centre and spread    4  (  2.085000,  3.618787,-10.305498 )     2.90140828
  WF centre and spread    5  (  2.085000,  3.523337,-10.428157 )     2.77671296
  WF centre and spread    6  (  2.085000,  3.536132,-10.412687 )     2.97654777
  WF centre and spread    7  (  2.085000,  1.867560, 10.305349 )     2.90145938
  WF centre and spread    8  (  2.085000,  1.962958, 10.428007 )     2.77663557
  WF centre and spread    9  (  2.085000,  1.950151, 10.412540 )     2.97642311
  Sum of centres and spreads ( 25.020001, 32.923499,-34.500037 )    26.25589487
 
     55    -0.140E-04     0.0116835655       26.2558948671       0.80  <-- CONV
        O_D=      0.0201993 O_OD=      0.4631204 O_TOT=     26.2558949 <-- SPRD
 Delta: O_D= -0.2296710E-06 O_OD= -0.1376324E-04 O_TOT= -0.1399291E-04 <-- DLTA
 ------------------------------------------------------------------------------
 Cycle:     56
  WF centre and spread    1  (  4.170000,  5.488169,-11.499870 )     2.67490978
  WF centre and spread    2  (  4.170000,  5.488197,-11.499860 )     3.24428657
  WF centre and spread    3  (  4.170000,  5.488208,-11.499861 )     3.02763573
  WF centre and spread    4  (  2.085000,  3.618809,-10.305494 )     2.90141882
  WF centre and spread    5  (  2.085000,  3.523331,-10.428153 )     2.77665949
  WF centre and spread    6  (  2.085000,  3.536110,-10.412688 )     2.97652001
  WF centre and spread    7  (  2.085000,  1.867538, 10.305344 )     2.90146989
  WF centre and spread    8  (  2.085000,  1.962965, 10.428003 )     2.77658211
  WF centre and spread    9  (  2.085000,  1.950173, 10.412542 )     2.97639536
  Sum of centres and spreads ( 25.020001, 32.923499,-34.500037 )    26.25587777
 
     56    -0.171E-04     0.0082821472       26.2558777720       0.81  <-- CONV
        O_D=      0.0202010 O_OD=      0.4631015 O_TOT=     26.2558778 <-- SPRD
 Delta: O_D=  0.1779355E-05 O_OD= -0.1887442E-04 O_TOT= -0.1709506E-04 <-- DLTA
 ------------------------------------------------------------------------------
 Cycle:     57
  WF centre and spread    1  (  4.170000,  5.488169,-11.499870 )     2.67488593
  WF centre and spread    2  (  4.170000,  5.488197,-11.499860 )     3.24438623
  WF centre and spread    3  (  4.170000,  5.488208,-11.499861 )     3.02773782
  WF centre and spread    4  (  2.085000,  3.618843,-10.305486 )     2.90143362
  WF centre and spread    5  (  2.085000,  3.523323,-10.428147 )     2.77658505
  WF centre and spread    6  (  2.085000,  3.536075,-10.412691 )     2.97648184
  WF centre and spread    7  (  2.085000,  1.867504, 10.305337 )     2.90148466
  WF centre and spread    8  (  2.085000,  1.962973, 10.427997 )     2.77650770
  WF centre and spread    9  (  2.085000,  1.950209, 10.412544 )     2.97635719
  Sum of centres and spreads ( 25.020001, 32.923499,-34.500037 )    26.25586005
 
     57    -0.177E-04     0.0090607690       26.2558600482       0.82  <-- CONV
        O_D=      0.0202054 O_OD=      0.4630794 O_TOT=     26.2558600 <-- SPRD
 Delta: O_D=  0.4366749E-05 O_OD= -0.2209055E-04 O_TOT= -0.1772380E-04 <-- DLTA
 ------------------------------------------------------------------------------
 Cycle:     58
  WF centre and spread    1  (  4.170000,  5.488169,-11.499870 )     2.67486431
  WF centre and spread    2  (  4.170000,  5.488197,-11.499860 )     3.24448208
  WF centre and spread    3  (  4.170000,  5.488208,-11.499861 )     3.02784657
[...]
  Sum of centres and spreads ( 25.020001, 32.923499,-34.500037 )    26.24852197
 
    485    -0.172E-04     0.0091401316       26.2485219707       5.17  <-- CONV
        O_D=      0.0219290 O_OD=      0.4540177 O_TOT=     26.2485220 <-- SPRD
 Delta: O_D=  0.7758365E-05 O_OD= -0.2497817E-04 O_TOT= -0.1721981E-04 <-- DLTA
 ------------------------------------------------------------------------------
 Cycle:    486
  WF centre and spread    1  (  4.170000,  5.488169,-11.499870 )     2.67309082
  WF centre and spread    2  (  4.170000,  5.488197,-11.499860 )     3.24432226
  WF centre and spread    3  (  4.170000,  5.488208,-11.499861 )     3.02984940
  WF centre and spread    4  (  2.085000,  3.634473,-10.304150 )     2.91173795
  WF centre and spread    5  (  2.085000,  3.523326,-10.428153 )     2.77659978
  WF centre and spread    6  (  2.085000,  3.520405,-10.413908 )     2.96235847
  WF centre and spread    7  (  2.085000,  1.851876, 10.304002 )     2.91178645
  WF centre and spread    8  (  2.085000,  1.962969, 10.428003 )     2.77652237
  WF centre and spread    9  (  2.085000,  1.965876, 10.413760 )     2.96223896
  Sum of centres and spreads ( 25.020001, 32.923499,-34.500037 )    26.24850647
 
    486    -0.155E-04     0.0085369578       26.2485064711       5.18  <-- CONV
        O_D=      0.0219368 O_OD=      0.4539944 O_TOT=     26.2485065 <-- SPRD
 Delta: O_D=  0.7797477E-05 O_OD= -0.2329712E-04 O_TOT= -0.1549964E-04 <-- DLTA
 ------------------------------------------------------------------------------
 Cycle:    487
  WF centre and spread    1  (  4.170000,  5.488169,-11.499870 )     2.67307523
  WF centre and spread    2  (  4.170000,  5.488197,-11.499860 )     3.24434065
  WF centre and spread    3  (  4.170000,  5.488208,-11.499861 )     3.02984381
  WF centre and spread    4  (  2.085000,  3.634478,-10.304149 )     2.91174497
  WF centre and spread    5  (  2.085000,  3.523326,-10.428152 )     2.77659673
  WF centre and spread    6  (  2.085000,  3.520399,-10.413908 )     2.96234820
  WF centre and spread    7  (  2.085000,  1.851871, 10.304000 )     2.91179350
  WF centre and spread    8  (  2.085000,  1.962970, 10.428002 )     2.77651933
  WF centre and spread    9  (  2.085000,  1.965882, 10.413760 )     2.96222869
  Sum of centres and spreads ( 25.020001, 32.923499,-34.500037 )    26.24849111
 
    487    -0.154E-04     0.0123926803       26.2484911102       5.19  <-- CONV
        O_D=      0.0219365 O_OD=      0.4539794 O_TOT=     26.2484911 <-- SPRD
 Delta: O_D= -0.2993794E-06 O_OD= -0.1506144E-04 O_TOT= -0.1536082E-04 <-- DLTA
 ------------------------------------------------------------------------------
 Cycle:    488
  WF centre and spread    1  (  4.170000,  5.488169,-11.499870 )     2.67302764
  WF centre and spread    2  (  4.170000,  5.488197,-11.499860 )     3.24440148
  WF centre and spread    3  (  4.170000,  5.488208,-11.499861 )     3.02983373
  WF centre and spread    4  (  2.085000,  3.634496,-10.304145 )     2.91177251
  WF centre and spread    5  (  2.085000,  3.523324,-10.428150 )     2.77658915
  WF centre and spread    6  (  2.085000,  3.520380,-10.413906 )     2.96231811
  WF centre and spread    7  (  2.085000,  1.851853, 10.303996 )     2.91182100
  WF centre and spread    8  (  2.085000,  1.962972, 10.428000 )     2.77651175
  WF centre and spread    9  (  2.085000,  1.965901, 10.413758 )     2.96219859
  Sum of centres and spreads ( 25.020001, 32.923499,-34.500037 )    26.24847396
 
    488    -0.172E-04     0.0085094168       26.2484739568       5.20  <-- CONV
        O_D=      0.0219369 O_OD=      0.4539619 O_TOT=     26.2484740 <-- SPRD
 Delta: O_D=  0.3741404E-06 O_OD= -0.1752762E-04 O_TOT= -0.1715348E-04 <-- DLTA
 ------------------------------------------------------------------------------
 Cycle:    489
  WF centre and spread    1  (  4.170000,  5.488169,-11.499870 )     2.67296598
  WF centre and spread    2  (  4.170000,  5.488197,-11.499860 )     3.24448356
  WF centre and spread    3  (  4.170000,  5.488208,-11.499861 )     3.02983243
  WF centre and spread    4  (  2.085000,  3.634526,-10.304139 )     2.91181241
  WF centre and spread    5  (  2.085000,  3.523322,-10.428148 )     2.77657533
  WF centre and spread    6  (  2.085000,  3.520349,-10.413905 )     2.96227368
  WF centre and spread    7  (  2.085000,  1.851824, 10.303990 )     2.91186087
  WF centre and spread    8  (  2.085000,  1.962974, 10.427998 )     2.77649794
  WF centre and spread    9  (  2.085000,  1.965932, 10.413757 )     2.96215417
  Sum of centres and spreads ( 25.020001, 32.923499,-34.500037 )    26.24845637
 
    489    -0.176E-04     0.0091180190       26.2484563664       5.21  <-- CONV
        O_D=      0.0219392 O_OD=      0.4539419 O_TOT=     26.2484564 <-- SPRD
 Delta: O_D=  0.2340849E-05 O_OD= -0.1993120E-04 O_TOT= -0.1759035E-04 <-- DLTA
 ------------------------------------------------------------------------------
 Cycle:    490
  WF centre and spread    1  (  4.170000,  5.488169,-11.499870 )     2.67290981
  WF centre and spread    2  (  4.170000,  5.488197,-11.499860 )     3.24455816
  WF centre and spread    3  (  4.170000,  5.488208,-11.499861 )     3.02984358
  WF centre and spread    4  (  2.085000,  3.634565,-10.304133 )     2.91185685
  WF centre and spread    5  (  2.085000,  3.523320,-10.428146 )     2.77655723
  WF centre and spread    6  (  2.085000,  3.520309,-10.413904 )     2.96222420
  WF centre and spread    7  (  2.085000,  1.851785, 10.303984 )     2.91190532
  WF centre and spread    8  (  2.085000,  1.962976, 10.427996 )     2.77647984
  WF centre and spread    9  (  2.085000,  1.965972, 10.413756 )     2.96210468
  Sum of centres and spreads ( 25.020001, 32.923499,-34.500037 )    26.24843965
 
    490    -0.167E-04     0.0091036698       26.2484396486       5.22  <-- CONV
        O_D=      0.0219441 O_OD=      0.4539204 O_TOT=     26.2484396 <-- SPRD
 Delta: O_D=  0.4818946E-05 O_OD= -0.2153675E-04 O_TOT= -0.1671780E-04 <-- DLTA
 ------------------------------------------------------------------------------
 Cycle:    491
  WF centre and spread    1  (  4.170000,  5.488169,-11.499870 )     2.67286749
  WF centre and spread    2  (  4.170000,  5.488197,-11.499860 )     3.24461396
  WF centre and spread    3  (  4.170000,  5.488208,-11.499861 )     3.02986572
  WF centre and spread    4  (  2.085000,  3.634617,-10.304128 )     2.91190387
  WF centre and spread    5  (  2.085000,  3.523319,-10.428145 )     2.77654036
  WF centre and spread    6  (  2.085000,  3.520256,-10.413904 )     2.96216773
  WF centre and spread    7  (  2.085000,  1.851733, 10.303979 )     2.91195227
  WF centre and spread    8  (  2.085000,  1.962977, 10.427995 )     2.77646296
  WF centre and spread    9  (  2.085000,  1.966025, 10.413756 )     2.96204822
  Sum of centres and spreads ( 25.020001, 32.923499,-34.500037 )    26.24842259
 
    491    -0.171E-04     0.0087716673       26.2484225852       5.23  <-- CONV
        O_D=      0.0219516 O_OD=      0.4538958 O_TOT=     26.2484226 <-- SPRD
 Delta: O_D=  0.7572611E-05 O_OD= -0.2463601E-04 O_TOT= -0.1706340E-04 <-- DLTA
 ------------------------------------------------------------------------------
 Cycle:    492
  WF centre and spread    1  (  4.170000,  5.488169,-11.499870 )     2.67284083
  WF centre and spread    2  (  4.170000,  5.488197,-11.499860 )     3.24464523
  WF centre and spread    3  (  4.170000,  5.488208,-11.499861 )     3.02988835
  WF centre and spread    4  (  2.085000,  3.634686,-10.304124 )     2.91195707
  WF centre and spread    5  (  2.085000,  3.523318,-10.428144 )     2.77653017
  WF centre and spread    6  (  2.085000,  3.520187,-10.413906 )     2.96210169
  WF centre and spread    7  (  2.085000,  1.851664, 10.303975 )     2.91200553
  WF centre and spread    8  (  2.085000,  1.962978, 10.427994 )     2.77645280
  WF centre and spread    9  (  2.085000,  1.966094, 10.413758 )     2.96198220
  Sum of centres and spreads ( 25.020001, 32.923499,-34.500037 )    26.24840387
 
    492    -0.187E-04     0.0095632034       26.2484038700       5.24  <-- CONV
        O_D=      0.0219605 O_OD=      0.4538681 O_TOT=     26.2484039 <-- SPRD
 Delta: O_D=  0.8889825E-05 O_OD= -0.2760502E-04 O_TOT= -0.1871520E-04 <-- DLTA
 ------------------------------------------------------------------------------
 Cycle:    493
  WF centre and spread    1  (  4.170000,  5.488169,-11.499870 )     2.67285303
  WF centre and spread    2  (  4.170000,  5.488197,-11.499860 )     3.24462260
  WF centre and spread    3  (  4.170000,  5.488208,-11.499861 )     3.02988075
  WF centre and spread    4  (  2.085000,  3.634693,-10.304125 )     2.91195673
  WF centre and spread    5  (  2.085000,  3.523318,-10.428144 )     2.77653545
  WF centre and spread    6  (  2.085000,  3.520180,-10.413907 )     2.96209654
  WF centre and spread    7  (  2.085000,  1.851657, 10.303976 )     2.91200512
  WF centre and spread    8  (  2.085000,  1.962977, 10.427995 )     2.77645805
  WF centre and spread    9  (  2.085000,  1.966101, 10.413759 )     2.96197705
  Sum of centres and spreads ( 25.020001, 32.923499,-34.500037 )    26.24838531
 
    493    -0.186E-04     0.0124667187       26.2483853144       5.25  <-- CONV
        O_D=      0.0219609 O_OD=      0.4538492 O_TOT=     26.2483853 <-- SPRD
 Delta: O_D=  0.3682571E-06 O_OD= -0.1892389E-04 O_TOT= -0.1855563E-04 <-- DLTA
 ------------------------------------------------------------------------------
 Cycle:    494
  WF centre and spread    1  (  4.170000,  5.488169,-11.499870 )     2.67288329
  WF centre and spread    2  (  4.170000,  5.488197,-11.499860 )     3.24457281
  WF centre and spread    3  (  4.170000,  5.488208,-11.499861 )     3.02987115
  WF centre and spread    4  (  2.085000,  3.634710,-10.304127 )     2.91195835
  WF centre and spread    5  (  2.085000,  3.523319,-10.428146 )     2.77654890
  WF centre and spread    6  (  2.085000,  3.520164,-10.413909 )     2.96208749
  WF centre and spread    7  (  2.085000,  1.851640, 10.303979 )     2.91200678
  WF centre and spread    8  (  2.085000,  1.962976, 10.427996 )     2.77647151
  WF centre and spread    9  (  2.085000,  1.966117, 10.413762 )     2.96196802
  Sum of centres and spreads ( 25.020001, 32.923499,-34.500037 )    26.24836830
 
    494    -0.170E-04     0.0095341105       26.2483683045       5.26  <-- CONV
        O_D=      0.0219615 O_OD=      0.4538316 O_TOT=     26.2483683 <-- SPRD
 Delta: O_D=  0.6490757E-06 O_OD= -0.1765895E-04 O_TOT= -0.1700988E-04 <-- DLTA
 ------------------------------------------------------------------------------
 Cycle:    495
  WF centre and spread    1  (  4.170000,  5.488169,-11.499870 )     2.67292981
  WF centre and spread    2  (  4.170000,  5.488197,-11.499860 )     3.24450098
  WF centre and spread    3  (  4.170000,  5.488208,-11.499861 )     3.02987030
  WF centre and spread    4  (  2.085000,  3.634738,-10.304131 )     2.91196200
  WF centre and spread    5  (  2.085000,  3.523321,-10.428148 )     2.77656562
  WF centre and spread    6  (  2.085000,  3.520137,-10.413913 )     2.96207188
  WF centre and spread    7  (  2.085000,  1.851612, 10.303982 )     2.91201042
  WF centre and spread    8  (  2.085000,  1.962974, 10.427998 )     2.77648822
  WF centre and spread    9  (  2.085000,  1.966144, 10.413765 )     2.96195243
  Sum of centres and spreads ( 25.020001, 32.923499,-34.500037 )    26.24835166
 
    495    -0.166E-04     0.0087569167       26.2483516600       5.27  <-- CONV
        O_D=      0.0219645 O_OD=      0.4538119 O_TOT=     26.2483517 <-- SPRD
 Delta: O_D=  0.2984976E-05 O_OD= -0.1962947E-04 O_TOT= -0.1664449E-04 <-- DLTA
 ------------------------------------------------------------------------------
 Cycle:    496
  WF centre and spread    1  (  4.170000,  5.488169,-11.499870 )     2.67298441
  WF centre and spread    2  (  4.170000,  5.488197,-11.499860 )     3.24441745
  WF centre and spread    3  (  4.170000,  5.488208,-11.499861 )     3.02988011
  WF centre and spread    4  (  2.085000,  3.634779,-10.304134 )     2.91197313
  WF centre and spread    5  (  2.085000,  3.523323,-10.428150 )     2.77658023
  WF centre and spread    6  (  2.085000,  3.520097,-10.413917 )     2.96204686
  WF centre and spread    7  (  2.085000,  1.851570, 10.303985 )     2.91202158
  WF centre and spread    8  (  2.085000,  1.962972, 10.428000 )     2.77650283
  WF centre and spread    9  (  2.085000,  1.966184, 10.413769 )     2.96192744
  Sum of centres and spreads ( 25.020001, 32.923499,-34.500037 )    26.24833403
 
    496    -0.176E-04     0.0090945587       26.2483340334       5.28  <-- CONV
        O_D=      0.0219704 O_OD=      0.4537885 O_TOT=     26.2483340 <-- SPRD
 Delta: O_D=  0.5851924E-05 O_OD= -0.2347858E-04 O_TOT= -0.1762666E-04 <-- DLTA
 ------------------------------------------------------------------------------
 Cycle:    497
  WF centre and spread    1  (  4.170000,  5.488169,-11.499870 )     2.67302764
  WF centre and spread    2  (  4.170000,  5.488197,-11.499860 )     3.24435173
  WF centre and spread    3  (  4.170000,  5.488208,-11.499861 )     3.02989630
  WF centre and spread    4  (  2.085000,  3.634831,-10.304135 )     2.91199565
  WF centre and spread    5  (  2.085000,  3.523325,-10.428152 )     2.77659041
  WF centre and spread    6  (  2.085000,  3.520046,-10.413920 )     2.96200869
  WF centre and spread    7  (  2.085000,  1.851519, 10.303986 )     2.91204412
  WF centre and spread    8  (  2.085000,  1.962970, 10.428002 )     2.77651302
  WF centre and spread    9  (  2.085000,  1.966235, 10.413772 )     2.96188929
  Sum of centres and spreads ( 25.020001, 32.923499,-34.500037 )    26.24831685
 
    497    -0.172E-04     0.0091304648       26.2483168479       5.29  <-- CONV
        O_D=      0.0219781 O_OD=      0.4537635 O_TOT=     26.2483168 <-- SPRD
 Delta: O_D=  0.7758521E-05 O_OD= -0.2494396E-04 O_TOT= -0.1718544E-04 <-- DLTA
 ------------------------------------------------------------------------------
 Cycle:    498
  WF centre and spread    1  (  4.170000,  5.488169,-11.499870 )     2.67304113
  WF centre and spread    2  (  4.170000,  5.488197,-11.499860 )     3.24432647
  WF centre and spread    3  (  4.170000,  5.488208,-11.499861 )     3.02990591
  WF centre and spread    4  (  2.085000,  3.634888,-10.304134 )     2.91203365
  WF centre and spread    5  (  2.085000,  3.523326,-10.428152 )     2.77659726
  WF centre and spread    6  (  2.085000,  3.519989,-10.413922 )     2.96195720
  WF centre and spread    7  (  2.085000,  1.851462, 10.303985 )     2.91208208
  WF centre and spread    8  (  2.085000,  1.962970, 10.428003 )     2.77651985
  WF centre and spread    9  (  2.085000,  1.966292, 10.413775 )     2.96183782
  Sum of centres and spreads ( 25.020001, 32.923499,-34.500037 )    26.24830136
 
    498    -0.155E-04     0.0085296812       26.2483013625       5.30  <-- CONV
        O_D=      0.0219859 O_OD=      0.4537402 O_TOT=     26.2483014 <-- SPRD
 Delta: O_D=  0.7802404E-05 O_OD= -0.2328787E-04 O_TOT= -0.1548546E-04 <-- DLTA
 ------------------------------------------------------------------------------
 Cycle:    499
  WF centre and spread    1  (  4.170000,  5.488169,-11.499870 )     2.67302562
  WF centre and spread    2  (  4.170000,  5.488197,-11.499860 )     3.24434462
  WF centre and spread    3  (  4.170000,  5.488208,-11.499861 )     3.02990002
  WF centre and spread    4  (  2.085000,  3.634893,-10.304132 )     2.91204068
  WF centre and spread    5  (  2.085000,  3.523326,-10.428152 )     2.77659446
  WF centre and spread    6  (  2.085000,  3.519983,-10.413922 )     2.96194690
  WF centre and spread    7  (  2.085000,  1.851457, 10.303983 )     2.91208914
  WF centre and spread    8  (  2.085000,  1.962970, 10.428002 )     2.77651706
  WF centre and spread    9  (  2.085000,  1.966297, 10.413774 )     2.96182752
  Sum of centres and spreads ( 25.020001, 32.923499,-34.500037 )    26.24828601
 
    499    -0.153E-04     0.0123923745       26.2482860134       5.31  <-- CONV
        O_D=      0.0219856 O_OD=      0.4537252 O_TOT=     26.2482860 <-- SPRD
 Delta: O_D= -0.2987920E-06 O_OD= -0.1505028E-04 O_TOT= -0.1534907E-04 <-- DLTA
 ------------------------------------------------------------------------------
 Cycle:    500
  WF centre and spread    1  (  4.170000,  5.488169,-11.499870 )     2.67297826
  WF centre and spread    2  (  4.170000,  5.488197,-11.499860 )     3.24440469
  WF centre and spread    3  (  4.170000,  5.488208,-11.499861 )     3.02988898
  WF centre and spread    4  (  2.085000,  3.634911,-10.304128 )     2.91206826
  WF centre and spread    5  (  2.085000,  3.523324,-10.428150 )     2.77658769
  WF centre and spread    6  (  2.085000,  3.519964,-10.413920 )     2.96191672
  WF centre and spread    7  (  2.085000,  1.851439, 10.303979 )     2.91211668
  WF centre and spread    8  (  2.085000,  1.962972, 10.428000 )     2.77651029
  WF centre and spread    9  (  2.085000,  1.966316, 10.413773 )     2.96179733
  Sum of centres and spreads ( 25.020001, 32.923499,-34.500037 )    26.24826889
 
    500    -0.171E-04     0.0085027769       26.2482688918       5.32  <-- CONV
        O_D=      0.0219860 O_OD=      0.4537077 O_TOT=     26.2482689 <-- SPRD
 Delta: O_D=  0.3704964E-06 O_OD= -0.1749212E-04 O_TOT= -0.1712163E-04 <-- DLTA
 ------------------------------------------------------------------------------

 Writing checkpoint file wannier90.up.chk... done

 Final State
  WF centre and spread    1  (  4.170000,  5.488169,-11.499870 )     2.67297826
  WF centre and spread    2  (  4.170000,  5.488197,-11.499860 )     3.24440469
  WF centre and spread    3  (  4.170000,  5.488208,-11.499861 )     3.02988898
  WF centre and spread    4  (  2.085000,  3.634911,-10.304128 )     2.91206826
  WF centre and spread    5  (  2.085000,  3.523324,-10.428150 )     2.77658769
  WF centre and spread    6  (  2.085000,  3.519964,-10.413920 )     2.96191672
  WF centre and spread    7  (  2.085000,  1.851439, 10.303979 )     2.91211668
  WF centre and spread    8  (  2.085000,  1.962972, 10.428000 )     2.77651029
  WF centre and spread    9  (  2.085000,  1.966316, 10.413773 )     2.96179733
  Sum of centres and spreads ( 25.020001, 32.923499,-34.500037 )    26.24826889
 
         Spreads (Ang^2)       Omega I      =    25.772575204
        ================       Omega D      =     0.021986004
                               Omega OD     =     0.453707683
    Final Spread (Ang^2)       Omega Total  =    26.248268892
 ------------------------------------------------------------------------------
  Wannier centres written to file wannier90.up_centres.xyz
 Time for wannierise            5.160 (sec)

 Writing checkpoint file wannier90.up.chk... done

 *---------------------------------------------------------------------------*
 |                               PLOTTING                                    |
 *---------------------------------------------------------------------------*
 
 Time for plotting              0.028 (sec)
 Total Execution Time           5.348 (sec)

 *===========================================================================*
 |                             TIMING INFORMATION                            |
 *===========================================================================*
 |    Tag                                                Ncalls      Time (s)|
 |---------------------------------------------------------------------------|
 |kmesh: get                                        :         1         0.060|
 |overlap: read                                     :         1         0.088|
 |wann: main                                        :         1         5.160|
 |plot: main                                        :         1         0.028|
 *---------------------------------------------------------------------------*
 
 All done: wannier90 exiting
