 
             +---------------------------------------------------+
             |                                                   |
             |                   WANNIER90                       |
             |                                                   |
             +---------------------------------------------------+
             |                                                   |
             |        Welcome to the Maximally-Localized         |
             |        Generalized Wannier Functions code         |
             |            http://www.wannier.org                 |
             |                                                   |
             |  Wannier90 Authors:                               |
             |    Arash A. Mostofi   (Imperial College London)   |
             |    Jonathan R. Yates  (University of Oxford)      |
             |    Young-Su Lee       (KIST, S. Korea)            |
             |                                                   |
             |  Wannier90 Contributors:                          |
             |    Matthew Shelley    (Imperial College London)   |
             |    Nicolas Poilvert   (MIT)                       |
             |                                                   |
             |  Wannier77 Authors:                               |
             |    Nicola Marzari     (University of Oxford)      |
             |    Ivo Souza          (UC Berkeley)               |
             |    David Vanderbilt   (Rutgers University)        |
             |                                                   |
             |  Please cite                                      |
             |                                                   |
             |  [ref] "Wannier90: A Tool for Obtaining Maximally |
             |         Localised Wannier Functions"              |
             |        A. A. Mostofi, J. R. Yates, Y.-S. Lee,     |
             |        I. Souza, D. Vanderbilt and N. Marzari     |
             |        Comput. Phys. Commun. 178, 685 (2008)      |
             |                                                   |
             |  in any publications arising from the use of      |
             |  this code. For the method please cite            |
             |                                                   |
             |  [ref] "Maximally Localized Generalised Wannier   |
             |         Functions for Composite Energy Bands"     |
             |         N. Marzari and D. Vanderbilt              |
             |         Phys. Rev. B 56 12847 (1997)              |
             |                                                   |
             |  [ref] "Maximally Localized Wannier Functions     |
             |         for Entangled Energy Bands"               |
             |         I. Souza, N. Marzari and D. Vanderbilt    |
             |         Phys. Rev. B 65 035109 (2001)             |
             |                                                   |
             |                                                   |
             | Copyright (c) 1996-2010                           |
             |        A. A. Mostofi, J. R. Yates, Y.-S. Lee,     |
             |        I. Souza, D. Vanderbilt and N. Marzari     |
             |                                                   |
             |        Release: 1.2        24th Jan 2010          |
             |                                                   |
             | This program is free software; you can            |
             | redistribute it and/or modify it under the terms  |
             | of the GNU General Public License as published by |
             | the Free Software Foundation; either version 2 of |
             | the License, or (at your option) any later version|
             |                                                   |
             | This program is distributed in the hope that it   |
             | will be useful, but WITHOUT ANY WARRANTY; without |
             | even the implied warranty of MERCHANTABILITY or   |
             | FITNESS FOR A PARTICULAR PURPOSE. See the GNU     |
             | General Public License for more details.          |
             |                                                   |
             | You should have received a copy of the GNU General|
             | Public License along with this program; if not,   |
             | write to the Free Software Foundation, Inc.,      |
             | 675 Mass Ave, Cambridge, MA 02139, USA.           |
             |                                                   |
             +---------------------------------------------------+
             |    Execution started on 26Dec2017 at 11:59:16     |
             +---------------------------------------------------+
 
                                    ------
                                    SYSTEM
                                    ------
 
                              Lattice Vectors (Ang)
                    a_1     4.170000   0.000000   0.000000
                    a_2     0.000000   5.490000   0.000000
                    a_3     0.000000   0.000000  23.000000
 
                   Unit Cell Volume:     526.54589  (Ang^3)
 
                        Reciprocal-Space Vectors (Ang^-1)
                    b_1     1.506759   0.000000   0.000000
                    b_2     0.000000   1.144478   0.000000
                    b_3     0.000000   0.000000   0.273182
  
 *----------------------------------------------------------------------------*
 |   Site       Fractional Coordinate          Cartesian Coordinate (Ang)     |
 +----------------------------------------------------------------------------+
 | Te   1   1.00000   0.99967   0.50001   |    4.17000   5.48819  11.50013    |
 | Te   2   0.50000   0.65538   0.54715   |    2.08500   3.59803  12.58438    |
 | Te   3   0.50000   0.34395   0.45285   |    2.08500   1.88829  10.41549    |
 *----------------------------------------------------------------------------*
  
                                ------------
                                K-POINT GRID
                                ------------
  
             Grid size = 16 x 10 x  1      Total points =  160
  
  
 *---------------------------------- MAIN ------------------------------------*
 |  Number of Wannier Functions               :                 9             |
 |  Number of input Bloch states              :                 9             |
 |  Output verbosity (1=low, 5=high)          :                 1             |
 |  Timing Level (1=low, 5=high)              :                 1             |
 |  Optimisation (0=memory, 3=speed)          :                 3             |
 |  Length Unit                               :               Ang             |
 |  Post-processing setup (write *.nnkp)      :                 F             |
 |  Using Gamma-only branch of algorithms     :                 F             |
 *----------------------------------------------------------------------------*
 *------------------------------- WANNIERISE ---------------------------------*
 |  Total number of iterations                :               500             |
 |  Number of CG steps before reset           :                 5             |
 |  Trial step length for line search         :             2.000             |
 |  Convergence tolerence                     :         0.100E-09             |
 |  Convergence window                        :                -1             |
 |  Iterations between writing output         :                 1             |
 |  Iterations between backing up to disk     :               100             |
 |  Write r^2_nm to file                      :                 F             |
 |  Write xyz WF centres to file              :                 T             |
 |  Use guiding centre to control phases      :                 T             |
 |  Iterations before starting guiding centres:                 0             |
 |  Iterations between using guiding centres  :                 1             |
 *----------------------------------------------------------------------------*
 *-------------------------------- PLOTTING ----------------------------------*
 |  Plotting Hamiltonian in WF basis          :                 T             |
 *----------------------------------------------------------------------------*
 Time to read parameters        0.004 (sec)

 *---------------------------------- K-MESH ----------------------------------*
 +----------------------------------------------------------------------------+
 |                    Distance to Nearest-Neighbour Shells                    |
 |                    ------------------------------------                    |
 |          Shell             Distance (Ang^-1)          Multiplicity         |
 |          -----             -----------------          ------------         |
 |             1                   0.094172                      2            |
 |             2                   0.114448                      2            |
 |             3                   0.148212                      4            |
 |             4                   0.188345                      2            |
 |             5                   0.220391                      4            |
 |             6                   0.228896                      2            |
 |             7                   0.247511                      4            |
 |             8                   0.273182                      2            |
 |             9                   0.282517                      2            |
 |            10                   0.288958                      4            |
 |            11                   0.296187                      4            |
 |            12                   0.296424                      4            |
 +----------------------------------------------------------------------------+
 | The b-vectors are chosen automatically                                     |
 | SVD found small singular value, Rejecting this shell and trying the next   |
 | SVD found small singular value, Rejecting this shell and trying the next   |
 | SVD found small singular value, Rejecting this shell and trying the next   |
 | The following shells are used:   1,  2,  8                                 |
 +----------------------------------------------------------------------------+
 |                        Shell   # Nearest-Neighbours                        |
 |                        -----   --------------------                        |
 |                          1               2                                 |
 |                          2               2                                 |
 |                          8               2                                 |
 +----------------------------------------------------------------------------+
 | Completeness relation is fully satisfied [Eq. (B1), PRB 56, 12847 (1997)]  |
 +----------------------------------------------------------------------------+
 |                  b_k Vectors (Ang^-1) and Weights (Ang^2)                  |
 |                  ----------------------------------------                  |
 |            No.         b_k(x)      b_k(y)      b_k(z)        w_b           |
 |            ---        --------------------------------     --------        |
 |             1         0.094172    0.000000    0.000000    56.379648        |
 |             2        -0.094172    0.000000    0.000000    56.379648        |
 |             3         0.000000    0.114448    0.000000    38.172880        |
 |             4         0.000000   -0.114448    0.000000    38.172880        |
 |             5         0.000000    0.000000    0.273182     6.699863        |
 |             6         0.000000    0.000000   -0.273182     6.699863        |
 +----------------------------------------------------------------------------+
 |                           b_k Directions (Ang^-1)                          |
 |                           -----------------------                          |
 |            No.           x           y           z                         |
 |            ---        --------------------------------                     |
 |             1         0.094172    0.000000    0.000000                     |
 |             2         0.000000    0.114448    0.000000                     |
 |             3         0.000000    0.000000    0.273182                     |
 +----------------------------------------------------------------------------+
  
 *============================================================================*
 |                              MEMORY ESTIMATE                               |
 |         Maximum RAM allocated during each phase of the calculation         |
 *============================================================================*
 |                            Wannierise:            3.56 Mb                  |
 *----------------------------------------------------------------------------*
  
 Starting a new Wannier90 calculation ...

 Time to get kmesh              0.032 (sec)

 Reading overlaps from wannier90.dn.mmn    : File generated by VASP: Te-2d

 Reading projections from wannier90.dn.amn : File generated by VASP: Te-2d

 Time to read overlaps          0.056 (sec)

 Writing checkpoint file wannier90.dn.chk... done

 
 *------------------------------- WANNIERISE ---------------------------------*
 +--------------------------------------------------------------------+<-- CONV
 | Iter  Delta Spread     RMS Gradient      Spread (Ang^2)      Time  |<-- CONV
 +--------------------------------------------------------------------+<-- CONV
 
 ------------------------------------------------------------------------------
 Initial State
  WF centre and spread    1  (  4.170000,  5.488169, 11.500132 )     2.67888699
  WF centre and spread    2  (  4.170000,  5.488197, 11.500138 )     3.51166836
  WF centre and spread    3  (  4.170000,  5.488210, 11.500138 )     3.18150132
  WF centre and spread    4  (  2.085000,  3.619940, 12.691021 )     2.90655650
  WF centre and spread    5  (  2.085000,  3.521416, 12.573615 )     2.84435489
  WF centre and spread    6  (  2.085000,  3.533804, 12.586183 )     3.05309907
  WF centre and spread    7  (  2.085000,  1.866404, 10.308831 )     2.90658811
  WF centre and spread    8  (  2.085000,  1.964878, 10.426235 )     2.84428321
  WF centre and spread    9  (  2.085000,  1.952481, 10.413671 )     3.05298999
  Sum of centres and spreads ( 25.020001, 32.923500,103.499964 )    26.97992844
 
      0     0.270E+02     0.0000000000       26.9799284365       0.10  <-- CONV
        O_D=      0.0417300 O_OD=      1.1656634 O_TOT=     26.9799284 <-- SPRD
 ------------------------------------------------------------------------------
 Cycle:      1
  WF centre and spread    1  (  4.170000,  5.488169,-11.499869 )     2.66297046
  WF centre and spread    2  (  4.170000,  5.488197,-11.499861 )     3.40890069
  WF centre and spread    3  (  4.170000,  5.488210,-11.499862 )     3.10105073
  WF centre and spread    4  (  2.085000,  3.619543,-10.306370 )     2.86744383
  WF centre and spread    5  (  2.085000,  3.522552,-10.426772 )     2.80813297
  WF centre and spread    6  (  2.085000,  3.534043,-10.413025 )     3.00902275
  WF centre and spread    7  (  2.085000,  1.866802, 10.306221 )     2.86747410
  WF centre and spread    8  (  2.085000,  1.963743, 10.426622 )     2.80805721
  WF centre and spread    9  (  2.085000,  1.952241, 10.412879 )     3.00891304
  Sum of centres and spreads ( 25.020001, 32.923500,-34.500036 )    26.54196576
 
      1    -0.438E+00     0.8025281359       26.5419657629       0.11  <-- CONV
        O_D=      0.0298999 O_OD=      0.7395308 O_TOT=     26.5419658 <-- SPRD
 Delta: O_D= -0.1183006E-01 O_OD= -0.4261326E+00 O_TOT= -0.4379627E+00 <-- DLTA
 ------------------------------------------------------------------------------
 Cycle:      2
  WF centre and spread    1  (  4.170000,  5.488169,-11.499869 )     2.66277446
  WF centre and spread    2  (  4.170000,  5.488197,-11.499861 )     3.37714056
  WF centre and spread    3  (  4.170000,  5.488209,-11.499862 )     3.07932426
  WF centre and spread    4  (  2.085000,  3.619123,-10.305398 )     2.85951406
  WF centre and spread    5  (  2.085000,  3.522910,-10.427192 )     2.80059655
  WF centre and spread    6  (  2.085000,  3.534570,-10.412714 )     2.99951675
  WF centre and spread    7  (  2.085000,  1.867223, 10.305249 )     2.85954685
  WF centre and spread    8  (  2.085000,  1.963385, 10.427042 )     2.80051806
  WF centre and spread    9  (  2.085000,  1.951714, 10.412568 )     2.99940608
  Sum of centres and spreads ( 25.020001, 32.923499,-34.500037 )    26.43833762
 
      2    -0.104E+00     0.5628560631       26.4383376195       0.12  <-- CONV
        O_D=      0.0238968 O_OD=      0.6419059 O_TOT=     26.4383376 <-- SPRD
 Delta: O_D= -0.6003187E-02 O_OD= -0.9762496E-01 O_TOT= -0.1036281E+00 <-- DLTA
 ------------------------------------------------------------------------------
 Cycle:      3
  WF centre and spread    1  (  4.170000,  5.488169,-11.499869 )     2.66257486
  WF centre and spread    2  (  4.170000,  5.488197,-11.499861 )     3.35600343
  WF centre and spread    3  (  4.170000,  5.488209,-11.499861 )     3.06685592
  WF centre and spread    4  (  2.085000,  3.618735,-10.304815 )     2.85680983
  WF centre and spread    5  (  2.085000,  3.523062,-10.427547 )     2.79701813
  WF centre and spread    6  (  2.085000,  3.534951,-10.412439 )     2.99586763
  WF centre and spread    7  (  2.085000,  1.867611, 10.304665 )     2.85684538
  WF centre and spread    8  (  2.085000,  1.963233, 10.427397 )     2.79693798
  WF centre and spread    9  (  2.085000,  1.951333, 10.412293 )     2.99575615
  Sum of centres and spreads ( 25.020001, 32.923499,-34.500037 )    26.38466931
 
      3    -0.537E-01     0.4944824212       26.3846693125       0.13  <-- CONV
        O_D=      0.0232192 O_OD=      0.5889151 O_TOT=     26.3846693 <-- SPRD
 Delta: O_D= -0.6775675E-03 O_OD= -0.5299074E-01 O_TOT= -0.5366831E-01 <-- DLTA
 ------------------------------------------------------------------------------
 Cycle:      4
  WF centre and spread    1  (  4.170000,  5.488169,-11.499869 )     2.66385511
  WF centre and spread    2  (  4.170000,  5.488197,-11.499860 )     3.33818281
  WF centre and spread    3  (  4.170000,  5.488209,-11.499861 )     3.05907101
  WF centre and spread    4  (  2.085000,  3.618363,-10.304433 )     2.85711643
  WF centre and spread    5  (  2.085000,  3.523116,-10.427853 )     2.79426886
  WF centre and spread    6  (  2.085000,  3.535295,-10.412175 )     2.99329358
  WF centre and spread    7  (  2.085000,  1.867983, 10.304283 )     2.85715467
  WF centre and spread    8  (  2.085000,  1.963179, 10.427703 )     2.79418826
  WF centre and spread    9  (  2.085000,  1.950988, 10.412029 )     2.99318011
  Sum of centres and spreads ( 25.020001, 32.923499,-34.500037 )    26.35031082
 
      4    -0.344E-01     0.4045185813       26.3503108212       0.14  <-- CONV
        O_D=      0.0221500 O_OD=      0.5556259 O_TOT=     26.3503108 <-- SPRD
 Delta: O_D= -0.1069240E-02 O_OD= -0.3328925E-01 O_TOT= -0.3435849E-01 <-- DLTA
 ------------------------------------------------------------------------------
 Cycle:      5
  WF centre and spread    1  (  4.170000,  5.488169,-11.499869 )     2.66568648
  WF centre and spread    2  (  4.170000,  5.488197,-11.499860 )     3.32022890
  WF centre and spread    3  (  4.170000,  5.488208,-11.499861 )     3.05269303
  WF centre and spread    4  (  2.085000,  3.617991,-10.304205 )     2.85957388
  WF centre and spread    5  (  2.085000,  3.523122,-10.428126 )     2.79173850
  WF centre and spread    6  (  2.085000,  3.535652,-10.411942 )     2.99130141
  WF centre and spread    7  (  2.085000,  1.868356, 10.304055 )     2.85961458
  WF centre and spread    8  (  2.085000,  1.963174, 10.427977 )     2.79165762
  WF centre and spread    9  (  2.085000,  1.950631, 10.411796 )     2.99118592
  Sum of centres and spreads ( 25.020001, 32.923499,-34.500037 )    26.32368032
 
      5    -0.266E-01     0.3673070875       26.3236803174       0.16  <-- CONV
        O_D=      0.0216518 O_OD=      0.5294935 O_TOT=     26.3236803 <-- SPRD
 Delta: O_D= -0.4981496E-03 O_OD= -0.2613235E-01 O_TOT= -0.2663050E-01 <-- DLTA
 ------------------------------------------------------------------------------
 Cycle:      6
  WF centre and spread    1  (  4.170000,  5.488169,-11.499869 )     2.66775712
  WF centre and spread    2  (  4.170000,  5.488197,-11.499860 )     3.30364187
  WF centre and spread    3  (  4.170000,  5.488208,-11.499861 )     3.04727520
  WF centre and spread    4  (  2.085000,  3.617659,-10.304138 )     2.86361952
  WF centre and spread    5  (  2.085000,  3.523083,-10.428333 )     2.78898981
  WF centre and spread    6  (  2.085000,  3.536001,-10.411783 )     2.98975228
  WF centre and spread    7  (  2.085000,  1.868688, 10.303988 )     2.86366231
  WF centre and spread    8  (  2.085000,  1.963212, 10.428183 )     2.78890922
  WF centre and spread    9  (  2.085000,  1.950282, 10.411637 )     2.98963474
  Sum of centres and spreads ( 25.020001, 32.923499,-34.500037 )    26.30324207
 
      6    -0.204E-01     0.3243940100       26.3032420668       0.16  <-- CONV
        O_D=      0.0218875 O_OD=      0.5088196 O_TOT=     26.3032421 <-- SPRD
 Delta: O_D=  0.2356518E-03 O_OD= -0.2067390E-01 O_TOT= -0.2043825E-01 <-- DLTA
 ------------------------------------------------------------------------------
 Cycle:      7
  WF centre and spread    1  (  4.170000,  5.488169,-11.499869 )     2.66755218
  WF centre and spread    2  (  4.170000,  5.488197,-11.499860 )     3.30146794
  WF centre and spread    3  (  4.170000,  5.488208,-11.499861 )     3.04605273
  WF centre and spread    4  (  2.085000,  3.617635,-10.304137 )     2.86361596
  WF centre and spread    5  (  2.085000,  3.523060,-10.428305 )     2.78730624
  WF centre and spread    6  (  2.085000,  3.536024,-10.411781 )     2.98871584
  WF centre and spread    7  (  2.085000,  1.868711, 10.303987 )     2.86365846
  WF centre and spread    8  (  2.085000,  1.963236, 10.428155 )     2.78722573
  WF centre and spread    9  (  2.085000,  1.950260, 10.411635 )     2.98859820
  Sum of centres and spreads ( 25.020001, 32.923499,-34.500037 )    26.29419328
 
      7    -0.905E-02     0.2920069038       26.2941932804       0.18  <-- CONV
        O_D=      0.0209969 O_OD=      0.5006614 O_TOT=     26.2941933 <-- SPRD
 Delta: O_D= -0.8905765E-03 O_OD= -0.8158210E-02 O_TOT= -0.9048786E-02 <-- DLTA
 ------------------------------------------------------------------------------
 Cycle:      8
  WF centre and spread    1  (  4.170000,  5.488169,-11.499869 )     2.66814568
  WF centre and spread    2  (  4.170000,  5.488197,-11.499860 )     3.29722039
  WF centre and spread    3  (  4.170000,  5.488208,-11.499861 )     3.04503959
  WF centre and spread    4  (  2.085000,  3.617564,-10.304150 )     2.86494871
  WF centre and spread    5  (  2.085000,  3.523031,-10.428244 )     2.78563645
  WF centre and spread    6  (  2.085000,  3.536094,-10.411783 )     2.98745567
  WF centre and spread    7  (  2.085000,  1.868783, 10.303999 )     2.86499100
  WF centre and spread    8  (  2.085000,  1.963264, 10.428094 )     2.78555632
  WF centre and spread    9  (  2.085000,  1.950189, 10.411637 )     2.98733785
  Sum of centres and spreads ( 25.020001, 32.923499,-34.500037 )    26.28633167
 
      8    -0.786E-02     0.1998671512       26.2863316671       0.19  <-- CONV
        O_D=      0.0207856 O_OD=      0.4930110 O_TOT=     26.2863317 <-- SPRD
 Delta: O_D= -0.2112659E-03 O_OD= -0.7650347E-02 O_TOT= -0.7861613E-02 <-- DLTA
 ------------------------------------------------------------------------------
 Cycle:      9
  WF centre and spread    1  (  4.170000,  5.488169,-11.499869 )     2.66913492
  WF centre and spread    2  (  4.170000,  5.488197,-11.499860 )     3.29201922
  WF centre and spread    3  (  4.170000,  5.488208,-11.499861 )     3.04415725
  WF centre and spread    4  (  2.085000,  3.617477,-10.304188 )     2.86704528
  WF centre and spread    5  (  2.085000,  3.523014,-10.428175 )     2.78420202
  WF centre and spread    6  (  2.085000,  3.536195,-10.411791 )     2.98643691
  WF centre and spread    7  (  2.085000,  1.868869, 10.304038 )     2.86708747
  WF centre and spread    8  (  2.085000,  1.963281, 10.428025 )     2.78412240
  WF centre and spread    9  (  2.085000,  1.950088, 10.411645 )     2.98631882
  Sum of centres and spreads ( 25.020001, 32.923499,-34.500037 )    26.28052429
 
      9    -0.581E-02     0.1767549046       26.2805242933       0.20  <-- CONV
        O_D=      0.0207483 O_OD=      0.4872410 O_TOT=     26.2805243 <-- SPRD
 Delta: O_D= -0.3729097E-04 O_OD= -0.5770083E-02 O_TOT= -0.5807374E-02 <-- DLTA
 ------------------------------------------------------------------------------
 Cycle:     10
  WF centre and spread    1  (  4.170000,  5.488169,-11.499869 )     2.67048801
  WF centre and spread    2  (  4.170000,  5.488197,-11.499860 )     3.28521177
  WF centre and spread    3  (  4.170000,  5.488208,-11.499861 )     3.04292407
  WF centre and spread    4  (  2.085000,  3.617380,-10.304278 )     2.87044718
  WF centre and spread    5  (  2.085000,  3.522996,-10.428095 )     2.78257792
  WF centre and spread    6  (  2.085000,  3.536338,-10.411809 )     2.98534819
  WF centre and spread    7  (  2.085000,  1.868966, 10.304128 )     2.87048970
  WF centre and spread    8  (  2.085000,  1.963300, 10.427945 )     2.78249902
  WF centre and spread    9  (  2.085000,  1.949945, 10.411663 )     2.98522944
  Sum of centres and spreads ( 25.020001, 32.923499,-34.500037 )    26.27521529
 
     10    -0.531E-02     0.1544437364       26.2752152934       0.21  <-- CONV
        O_D=      0.0205197 O_OD=      0.4821606 O_TOT=     26.2752153 <-- SPRD
 Delta: O_D= -0.2286564E-03 O_OD= -0.5080344E-02 O_TOT= -0.5309000E-02 <-- DLTA
 ------------------------------------------------------------------------------
 Cycle:     11
  WF centre and spread    1  (  4.170000,  5.488169,-11.499869 )     2.67174278
  WF centre and spread    2  (  4.170000,  5.488197,-11.499860 )     3.27693327
  WF centre and spread    3  (  4.170000,  5.488208,-11.499861 )     3.04093283
  WF centre and spread    4  (  2.085000,  3.617299,-10.304440 )     2.87509592
  WF centre and spread    5  (  2.085000,  3.522980,-10.428015 )     2.78090644
  WF centre and spread    6  (  2.085000,  3.536501,-10.411845 )     2.98434199
  WF centre and spread    7  (  2.085000,  1.869048, 10.304290 )     2.87513935
  WF centre and spread    8  (  2.085000,  1.963315, 10.427865 )     2.78082826
  WF centre and spread    9  (  2.085000,  1.949782, 10.411699 )     2.98422235
  Sum of centres and spreads ( 25.020001, 32.923499,-34.500037 )    26.27014319
 
     11    -0.507E-02     0.1563380917       26.2701431941       0.22  <-- CONV
        O_D=      0.0204952 O_OD=      0.4771130 O_TOT=     26.2701432 <-- SPRD
 Delta: O_D= -0.2442627E-04 O_OD= -0.5047673E-02 O_TOT= -0.5072099E-02 <-- DLTA
 ------------------------------------------------------------------------------
 Cycle:     12
  WF centre and spread    1  (  4.170000,  5.488169,-11.499869 )     2.67259101
  WF centre and spread    2  (  4.170000,  5.488197,-11.499860 )     3.26928309
  WF centre and spread    3  (  4.170000,  5.488208,-11.499861 )     3.03853826
  WF centre and spread    4  (  2.085000,  3.617258,-10.304637 )     2.87987453
  WF centre and spread    5  (  2.085000,  3.522979,-10.427964 )     2.77952325
  WF centre and spread    6  (  2.085000,  3.536641,-10.411897 )     2.98354343
  WF centre and spread    7  (  2.085000,  1.869088, 10.304487 )     2.87991930
  WF centre and spread    8  (  2.085000,  1.963317, 10.427814 )     2.77944561
  WF centre and spread    9  (  2.085000,  1.949643, 10.411751 )     2.98342282
  Sum of centres and spreads ( 25.020001, 32.923499,-34.500037 )    26.26614130
 
     12    -0.400E-02     0.1561894772       26.2661412969       0.23  <-- CONV
        O_D=      0.0205149 O_OD=      0.4730914 O_TOT=     26.2661413 <-- SPRD
 Delta: O_D=  0.1970160E-04 O_OD= -0.4021599E-02 O_TOT= -0.4001897E-02 <-- DLTA
 ------------------------------------------------------------------------------
 Cycle:     13
  WF centre and spread    1  (  4.170000,  5.488169,-11.499869 )     2.67242710
  WF centre and spread    2  (  4.170000,  5.488197,-11.499860 )     3.26817540
  WF centre and spread    3  (  4.170000,  5.488208,-11.499861 )     3.03763028
  WF centre and spread    4  (  2.085000,  3.617267,-10.304660 )     2.88042143
  WF centre and spread    5  (  2.085000,  3.522993,-10.427978 )     2.77934197
  WF centre and spread    6  (  2.085000,  3.536654,-10.411907 )     2.98327832
  WF centre and spread    7  (  2.085000,  1.869080, 10.304510 )     2.88046657
  WF centre and spread    8  (  2.085000,  1.963303, 10.427828 )     2.77926421
  WF centre and spread    9  (  2.085000,  1.949630, 10.411760 )     2.98315759
  Sum of centres and spreads ( 25.020001, 32.923499,-34.500037 )    26.26416287
 
     13    -0.198E-02     0.1214323851       26.2641628720       0.24  <-- CONV
        O_D=      0.0203066 O_OD=      0.4713213 O_TOT=     26.2641629 <-- SPRD
 Delta: O_D= -0.2083497E-03 O_OD= -0.1770075E-02 O_TOT= -0.1978425E-02 <-- DLTA
 ------------------------------------------------------------------------------
 Cycle:     14
  WF centre and spread    1  (  4.170000,  5.488169,-11.499869 )     2.67230323
  WF centre and spread    2  (  4.170000,  5.488197,-11.499860 )     3.26624577
  WF centre and spread    3  (  4.170000,  5.488208,-11.499861 )     3.03619780
  WF centre and spread    4  (  2.085000,  3.617281,-10.304710 )     2.88165613
  WF centre and spread    5  (  2.085000,  3.523028,-10.428007 )     2.77933982
  WF centre and spread    6  (  2.085000,  3.536683,-10.411930 )     2.98298613
  WF centre and spread    7  (  2.085000,  1.869065, 10.304560 )     2.88170206
  WF centre and spread    8  (  2.085000,  1.963267, 10.427857 )     2.77926187
  WF centre and spread    9  (  2.085000,  1.949601, 10.411783 )     2.98286513
  Sum of centres and spreads ( 25.020001, 32.923499,-34.500037 )    26.26255796
 
     14    -0.160E-02     0.0989884325       26.2625579579       0.26  <-- CONV
        O_D=      0.0202539 O_OD=      0.4697691 O_TOT=     26.2625580 <-- SPRD
 Delta: O_D= -0.5270441E-04 O_OD= -0.1552210E-02 O_TOT= -0.1604914E-02 <-- DLTA
 ------------------------------------------------------------------------------
 Cycle:     15
  WF centre and spread    1  (  4.170000,  5.488169,-11.499869 )     2.67236259
  WF centre and spread    2  (  4.170000,  5.488197,-11.499860 )     3.26348051
  WF centre and spread    3  (  4.170000,  5.488208,-11.499861 )     3.03448312
  WF centre and spread    4  (  2.085000,  3.617306,-10.304790 )     2.88349216
  WF centre and spread    5  (  2.085000,  3.523088,-10.428051 )     2.77941385
  WF centre and spread    6  (  2.085000,  3.536729,-10.411971 )     2.98264597
  WF centre and spread    7  (  2.085000,  1.869041, 10.304640 )     2.88353911
  WF centre and spread    8  (  2.085000,  1.963208, 10.427901 )     2.77933567
  WF centre and spread    9  (  2.085000,  1.949554, 10.411824 )     2.98252451
  Sum of centres and spreads ( 25.020001, 32.923499,-34.500037 )    26.26127750
 
     15    -0.128E-02     0.0787565226       26.2612774997       0.27  <-- CONV
        O_D=      0.0202513 O_OD=      0.4684912 O_TOT=     26.2612775 <-- SPRD
 Delta: O_D= -0.2545712E-05 O_OD= -0.1277912E-02 O_TOT= -0.1280458E-02 <-- DLTA
 ------------------------------------------------------------------------------
 Cycle:     16
  WF centre and spread    1  (  4.170000,  5.488169,-11.499869 )     2.67264768
  WF centre and spread    2  (  4.170000,  5.488197,-11.499860 )     3.25998999
  WF centre and spread    3  (  4.170000,  5.488208,-11.499861 )     3.03258167
  WF centre and spread    4  (  2.085000,  3.617344,-10.304904 )     2.88594199
  WF centre and spread    5  (  2.085000,  3.523166,-10.428106 )     2.77941447
  WF centre and spread    6  (  2.085000,  3.536794,-10.412033 )     2.98215663
  WF centre and spread    7  (  2.085000,  1.869002, 10.304754 )     2.88599014
  WF centre and spread    8  (  2.085000,  1.963130, 10.427956 )     2.77933606
  WF centre and spread    9  (  2.085000,  1.949490, 10.411886 )     2.98203450
  Sum of centres and spreads ( 25.020001, 32.923499,-34.500037 )    26.26009313
 
     16    -0.118E-02     0.0763728971       26.2600931302       0.28  <-- CONV
        O_D=      0.0201892 O_OD=      0.4673689 O_TOT=     26.2600931 <-- SPRD
 Delta: O_D= -0.6215505E-04 O_OD= -0.1122214E-02 O_TOT= -0.1184369E-02 <-- DLTA
 ------------------------------------------------------------------------------
 Cycle:     17
  WF centre and spread    1  (  4.170000,  5.488169,-11.499869 )     2.67305450
  WF centre and spread    2  (  4.170000,  5.488197,-11.499860 )     3.25662427
  WF centre and spread    3  (  4.170000,  5.488208,-11.499861 )     3.03099933
  WF centre and spread    4  (  2.085000,  3.617391,-10.305023 )     2.88841748
  WF centre and spread    5  (  2.085000,  3.523238,-10.428153 )     2.77929565
  WF centre and spread    6  (  2.085000,  3.536857,-10.412102 )     2.98160743
  WF centre and spread    7  (  2.085000,  1.868956, 10.304873 )     2.88846664
  WF centre and spread    8  (  2.085000,  1.963058, 10.428003 )     2.77921710
  WF centre and spread    9  (  2.085000,  1.949427, 10.411956 )     2.98148464
  Sum of centres and spreads ( 25.020001, 32.923499,-34.500037 )    26.25916707
 
     17    -0.926E-03     0.0710137477       26.2591670688       0.29  <-- CONV
        O_D=      0.0201540 O_OD=      0.4664781 O_TOT=     26.2591671 <-- SPRD
 Delta: O_D= -0.3519036E-04 O_OD= -0.8908710E-03 O_TOT= -0.9260614E-03 <-- DLTA
 ------------------------------------------------------------------------------
 Cycle:     18
  WF centre and spread    1  (  4.170000,  5.488169,-11.499869 )     2.67342781
  WF centre and spread    2  (  4.170000,  5.488197,-11.499860 )     3.25436143
  WF centre and spread    3  (  4.170000,  5.488208,-11.499861 )     3.03013085
  WF centre and spread    4  (  2.085000,  3.617430,-10.305110 )     2.89021201
  WF centre and spread    5  (  2.085000,  3.523276,-10.428175 )     2.77908677
  WF centre and spread    6  (  2.085000,  3.536898,-10.412156 )     2.98114197
  WF centre and spread    7  (  2.085000,  1.868917, 10.304960 )     2.89026174
  WF centre and spread    8  (  2.085000,  1.963019, 10.428025 )     2.77900820
  WF centre and spread    9  (  2.085000,  1.949385, 10.412010 )     2.98101874
  Sum of centres and spreads ( 25.020001, 32.923499,-34.500037 )    26.25864952
 
     18    -0.518E-03     0.0565131405       26.2586495236       0.30  <-- CONV
        O_D=      0.0201651 O_OD=      0.4659494 O_TOT=     26.2586495 <-- SPRD
 Delta: O_D=  0.1112906E-04 O_OD= -0.5286743E-03 O_TOT= -0.5175452E-03 <-- DLTA
 ------------------------------------------------------------------------------
 Cycle:     19
  WF centre and spread    1  (  4.170000,  5.488169,-11.499869 )     2.67348066
  WF centre and spread    2  (  4.170000,  5.488197,-11.499860 )     3.25412931
  WF centre and spread    3  (  4.170000,  5.488208,-11.499861 )     3.03011652
  WF centre and spread    4  (  2.085000,  3.617439,-10.305119 )     2.89041026
  WF centre and spread    5  (  2.085000,  3.523271,-10.428170 )     2.77893677
  WF centre and spread    6  (  2.085000,  3.536901,-10.412164 )     2.98101809
  WF centre and spread    7  (  2.085000,  1.868908, 10.304969 )     2.89045996
  WF centre and spread    8  (  2.085000,  1.963025, 10.428020 )     2.77885824
  WF centre and spread    9  (  2.085000,  1.949383, 10.412017 )     2.98089483
  Sum of centres and spreads ( 25.020001, 32.923499,-34.500037 )    26.25830465
 
     19    -0.345E-03     0.0554440212       26.2583046526       0.31  <-- CONV
        O_D=      0.0201396 O_OD=      0.4656300 O_TOT=     26.2583047 <-- SPRD
 Delta: O_D= -0.2551875E-04 O_OD= -0.3193523E-03 O_TOT= -0.3448710E-03 <-- DLTA
 ------------------------------------------------------------------------------
 Cycle:     20
  WF centre and spread    1  (  4.170000,  5.488169,-11.499869 )     2.67367470
  WF centre and spread    2  (  4.170000,  5.488197,-11.499860 )     3.25346702
  WF centre and spread    3  (  4.170000,  5.488208,-11.499861 )     3.03015369
  WF centre and spread    4  (  2.085000,  3.617465,-10.305149 )     2.89109561
  WF centre and spread    5  (  2.085000,  3.523256,-10.428154 )     2.77857856
  WF centre and spread    6  (  2.085000,  3.536908,-10.412187 )     2.98070445
  WF centre and spread    7  (  2.085000,  1.868881, 10.304999 )     2.89114526
  WF centre and spread    8  (  2.085000,  1.963039, 10.428004 )     2.77850017
  WF centre and spread    9  (  2.085000,  1.949375, 10.412041 )     2.98058110
  Sum of centres and spreads ( 25.020001, 32.923499,-34.500037 )    26.25790055
 
     20    -0.404E-03     0.0421361386       26.2579005532       0.32  <-- CONV
        O_D=      0.0201373 O_OD=      0.4652283 O_TOT=     26.2579006 <-- SPRD
 Delta: O_D= -0.2327035E-05 O_OD= -0.4017724E-03 O_TOT= -0.4040994E-03 <-- DLTA
 ------------------------------------------------------------------------------
 Cycle:     21
  WF centre and spread    1  (  4.170000,  5.488169,-11.499869 )     2.67391165
  WF centre and spread    2  (  4.170000,  5.488197,-11.499860 )     3.25255210
  WF centre and spread    3  (  4.170000,  5.488208,-11.499861 )     3.03017662
  WF centre and spread    4  (  2.085000,  3.617504,-10.305194 )     2.89204950
  WF centre and spread    5  (  2.085000,  3.523241,-10.428135 )     2.77814236
  WF centre and spread    6  (  2.085000,  3.536919,-10.412220 )     2.98033803
  WF centre and spread    7  (  2.085000,  1.868843, 10.305044 )     2.89209912
  WF centre and spread    8  (  2.085000,  1.963055, 10.427985 )     2.77806416
  WF centre and spread    9  (  2.085000,  1.949365, 10.412073 )     2.98021453
  Sum of centres and spreads ( 25.020001, 32.923499,-34.500037 )    26.25754809
 
     21    -0.352E-03     0.0420887744       26.2575480862       0.34  <-- CONV
        O_D=      0.0201408 O_OD=      0.4648723 O_TOT=     26.2575481 <-- SPRD
 Delta: O_D=  0.3512336E-05 O_OD= -0.3559793E-03 O_TOT= -0.3524670E-03 <-- DLTA
 ------------------------------------------------------------------------------
 Cycle:     22
  WF centre and spread    1  (  4.170000,  5.488169,-11.499869 )     2.67413369
  WF centre and spread    2  (  4.170000,  5.488197,-11.499860 )     3.25148901
  WF centre and spread    3  (  4.170000,  5.488208,-11.499861 )     3.03011680
  WF centre and spread    4  (  2.085000,  3.617549,-10.305248 )     2.89315315
  WF centre and spread    5  (  2.085000,  3.523229,-10.428118 )     2.77770832
  WF centre and spread    6  (  2.085000,  3.536929,-10.412258 )     2.97997387
  WF centre and spread    7  (  2.085000,  1.868798, 10.305098 )     2.89320282
  WF centre and spread    8  (  2.085000,  1.963067, 10.427968 )     2.77763032
  WF centre and spread    9  (  2.085000,  1.949355, 10.412111 )     2.97985018
  Sum of centres and spreads ( 25.020001, 32.923499,-34.500037 )    26.25725816
 
     22    -0.290E-03     0.0392236088       26.2572581615       0.35  <-- CONV
        O_D=      0.0201313 O_OD=      0.4645919 O_TOT=     26.2572582 <-- SPRD
 Delta: O_D= -0.9514689E-05 O_OD= -0.2804100E-03 O_TOT= -0.2899247E-03 <-- DLTA
 ------------------------------------------------------------------------------
 Cycle:     23
  WF centre and spread    1  (  4.170000,  5.488169,-11.499869 )     2.67430965
  WF centre and spread    2  (  4.170000,  5.488197,-11.499860 )     3.25030503
  WF centre and spread    3  (  4.170000,  5.488208,-11.499861 )     3.02991508
  WF centre and spread    4  (  2.085000,  3.617600,-10.305308 )     2.89433908
  WF centre and spread    5  (  2.085000,  3.523225,-10.428107 )     2.77734416
  WF centre and spread    6  (  2.085000,  3.536937,-10.412299 )     2.97964136
  WF centre and spread    7  (  2.085000,  1.868746, 10.305158 )     2.89438887
  WF centre and spread    8  (  2.085000,  1.963071, 10.427957 )     2.77726633
  WF centre and spread    9  (  2.085000,  1.949346, 10.412152 )     2.97951745
  Sum of centres and spreads ( 25.020001, 32.923499,-34.500037 )    26.25702702
 
     23    -0.231E-03     0.0343764157       26.2570270162       0.36  <-- CONV
        O_D=      0.0201283 O_OD=      0.4643638 O_TOT=     26.2570270 <-- SPRD
 Delta: O_D= -0.3027107E-05 O_OD= -0.2281182E-03 O_TOT= -0.2311453E-03 <-- DLTA
 ------------------------------------------------------------------------------
 Cycle:     24
  WF centre and spread    1  (  4.170000,  5.488169,-11.499869 )     2.67442763
  WF centre and spread    2  (  4.170000,  5.488197,-11.499860 )     3.24921580
  WF centre and spread    3  (  4.170000,  5.488208,-11.499861 )     3.02960570
  WF centre and spread    4  (  2.085000,  3.617649,-10.305362 )     2.89540895
  WF centre and spread    5  (  2.085000,  3.523228,-10.428103 )     2.77710545
  WF centre and spread    6  (  2.085000,  3.536941,-10.412336 )     2.97936923
  WF centre and spread    7  (  2.085000,  1.868698, 10.305212 )     2.89545894
  WF centre and spread    8  (  2.085000,  1.963067, 10.427953 )     2.77702774
  WF centre and spread    9  (  2.085000,  1.949343, 10.412189 )     2.97924513
  Sum of centres and spreads ( 25.020001, 32.923499,-34.500037 )    26.25686459
 
     24    -0.162E-03     0.0320357644       26.2568645904       0.37  <-- CONV
        O_D=      0.0201335 O_OD=      0.4641961 O_TOT=     26.2568646 <-- SPRD
 Delta: O_D=  0.5283353E-05 O_OD= -0.1677092E-03 O_TOT= -0.1624259E-03 <-- DLTA
 ------------------------------------------------------------------------------
 Cycle:     25
  WF centre and spread    1  (  4.170000,  5.488169,-11.499869 )     2.67442782
  WF centre and spread    2  (  4.170000,  5.488197,-11.499860 )     3.24900870
  WF centre and spread    3  (  4.170000,  5.488208,-11.499861 )     3.02945536
  WF centre and spread    4  (  2.085000,  3.617659,-10.305369 )     2.89557205
  WF centre and spread    5  (  2.085000,  3.523235,-10.428107 )     2.77711892
  WF centre and spread    6  (  2.085000,  3.536939,-10.412342 )     2.97931630
  WF centre and spread    7  (  2.085000,  1.868688, 10.305219 )     2.89562211
  WF centre and spread    8  (  2.085000,  1.963061, 10.427957 )     2.77704120
  WF centre and spread    9  (  2.085000,  1.949345, 10.412196 )     2.97919218
  Sum of centres and spreads ( 25.020001, 32.923499,-34.500037 )    26.25675464
 
     25    -0.110E-03     0.0289648422       26.2567546374       0.38  <-- CONV
        O_D=      0.0201234 O_OD=      0.4640963 O_TOT=     26.2567546 <-- SPRD
 Delta: O_D= -0.1016830E-04 O_OD= -0.9978466E-04 O_TOT= -0.1099530E-03 <-- DLTA
 ------------------------------------------------------------------------------
 Cycle:     26
  WF centre and spread    1  (  4.170000,  5.488169,-11.499869 )     2.67444595
  WF centre and spread    2  (  4.170000,  5.488197,-11.499860 )     3.24854936
  WF centre and spread    3  (  4.170000,  5.488208,-11.499861 )     3.02914702
  WF centre and spread    4  (  2.085000,  3.617683,-10.305385 )     2.89595870
  WF centre and spread    5  (  2.085000,  3.523249,-10.428117 )     2.77716502
  WF centre and spread    6  (  2.085000,  3.536934,-10.412357 )     2.97920473
  WF centre and spread    7  (  2.085000,  1.868664, 10.305235 )     2.89600893
  WF centre and spread    8  (  2.085000,  1.963046, 10.427967 )     2.77708727
  WF centre and spread    9  (  2.085000,  1.949350, 10.412211 )     2.97908055
  Sum of centres and spreads ( 25.020001, 32.923499,-34.500037 )    26.25664752
 
     26    -0.107E-03     0.0240181552       26.2566475240       0.40  <-- CONV
        O_D=      0.0201200 O_OD=      0.4639926 O_TOT=     26.2566475 <-- SPRD
 Delta: O_D= -0.3397664E-05 O_OD= -0.1037157E-03 O_TOT= -0.1071134E-03 <-- DLTA
 ------------------------------------------------------------------------------
 Cycle:     27
  WF centre and spread    1  (  4.170000,  5.488169,-11.499869 )     2.67449820
  WF centre and spread    2  (  4.170000,  5.488197,-11.499860 )     3.24790425
  WF centre and spread    3  (  4.170000,  5.488208,-11.499861 )     3.02876395
  WF centre and spread    4  (  2.085000,  3.617719,-10.305410 )     2.89651175
  WF centre and spread    5  (  2.085000,  3.523270,-10.428130 )     2.77721714
  WF centre and spread    6  (  2.085000,  3.536926,-10.412380 )     2.97904099
  WF centre and spread    7  (  2.085000,  1.868628, 10.305260 )     2.89656220
  WF centre and spread    8  (  2.085000,  1.963025, 10.427981 )     2.77713935
  WF centre and spread    9  (  2.085000,  1.949358, 10.412234 )     2.97891672
  Sum of centres and spreads ( 25.020001, 32.923499,-34.500037 )    26.25655455
 
     27    -0.930E-04     0.0211163404       26.2565545540       0.41  <-- CONV
        O_D=      0.0201200 O_OD=      0.4638996 O_TOT=     26.2565546 <-- SPRD
 Delta: O_D=  0.1028982E-07 O_OD= -0.9298036E-04 O_TOT= -0.9297007E-04 <-- DLTA
 ------------------------------------------------------------------------------
 Cycle:     28
  WF centre and spread    1  (  4.170000,  5.488169,-11.499869 )     2.67458123
  WF centre and spread    2  (  4.170000,  5.488197,-11.499860 )     3.24715707
  WF centre and spread    3  (  4.170000,  5.488208,-11.499861 )     3.02836687
  WF centre and spread    4  (  2.085000,  3.617765,-10.305440 )     2.89718591
  WF centre and spread    5  (  2.085000,  3.523293,-10.428144 )     2.77724640
  WF centre and spread    6  (  2.085000,  3.536915,-10.412410 )     2.97882617
  WF centre and spread    7  (  2.085000,  1.868582, 10.305290 )     2.89723658
  WF centre and spread    8  (  2.085000,  1.963002, 10.427994 )     2.77716859
  WF centre and spread    9  (  2.085000,  1.949368, 10.412263 )     2.97870178
  Sum of centres and spreads ( 25.020001, 32.923499,-34.500037 )    26.25647058
 
     28    -0.840E-04     0.0208444136       26.2564705845       0.42  <-- CONV
        O_D=      0.0201173 O_OD=      0.4638183 O_TOT=     26.2564706 <-- SPRD
 Delta: O_D= -0.2684813E-05 O_OD= -0.8128462E-04 O_TOT= -0.8396944E-04 <-- DLTA
 ------------------------------------------------------------------------------
 Cycle:     29
  WF centre and spread    1  (  4.170000,  5.488169,-11.499869 )     2.67467003
  WF centre and spread    2  (  4.170000,  5.488197,-11.499860 )     3.24650843
  WF centre and spread    3  (  4.170000,  5.488208,-11.499861 )     3.02806866
  WF centre and spread    4  (  2.085000,  3.617812,-10.305468 )     2.89782014
  WF centre and spread    5  (  2.085000,  3.523311,-10.428154 )     2.77723192
  WF centre and spread    6  (  2.085000,  3.536903,-10.412438 )     2.97860440
  WF centre and spread    7  (  2.085000,  1.868535, 10.305318 )     2.89787098
  WF centre and spread    8  (  2.085000,  1.962985, 10.428004 )     2.77715412
  WF centre and spread    9  (  2.085000,  1.949381, 10.412292 )     2.97847989
  Sum of centres and spreads ( 25.020001, 32.923499,-34.500037 )    26.25640858
 
     29    -0.620E-04     0.0184738228       26.2564085796       0.44  <-- CONV
        O_D=      0.0201169 O_OD=      0.4637567 O_TOT=     26.2564086 <-- SPRD
 Delta: O_D= -0.3964393E-06 O_OD= -0.6160845E-04 O_TOT= -0.6200489E-04 <-- DLTA
 ------------------------------------------------------------------------------
 Cycle:     30
  WF centre and spread    1  (  4.170000,  5.488169,-11.499869 )     2.67474274
  WF centre and spread    2  (  4.170000,  5.488197,-11.499860 )     3.24606891
  WF centre and spread    3  (  4.170000,  5.488208,-11.499861 )     3.02790973
  WF centre and spread    4  (  2.085000,  3.617852,-10.305488 )     2.89830844
  WF centre and spread    5  (  2.085000,  3.523320,-10.428157 )     2.77717965
  WF centre and spread    6  (  2.085000,  3.536890,-10.412460 )     2.97841269
  WF centre and spread    7  (  2.085000,  1.868495, 10.305338 )     2.89835937
  WF centre and spread    8  (  2.085000,  1.962976, 10.428008 )     2.77710187
  WF centre and spread    9  (  2.085000,  1.949394, 10.412314 )     2.97828810
  Sum of centres and spreads ( 25.020001, 32.923499,-34.500037 )    26.25637151
 
     30    -0.371E-04     0.0146484424       26.2563715068       0.45  <-- CONV
        O_D=      0.0201199 O_OD=      0.4637166 O_TOT=     26.2563715 <-- SPRD
 Delta: O_D=  0.2970537E-05 O_OD= -0.4004333E-04 O_TOT= -0.3707279E-04 <-- DLTA
 ------------------------------------------------------------------------------
 Cycle:     31
  WF centre and spread    1  (  4.170000,  5.488169,-11.499869 )     2.67474841
  WF centre and spread    2  (  4.170000,  5.488197,-11.499860 )     3.24604667
  WF centre and spread    3  (  4.170000,  5.488208,-11.499861 )     3.02792328
  WF centre and spread    4  (  2.085000,  3.617859,-10.305489 )     2.89836235
  WF centre and spread    5  (  2.085000,  3.523318,-10.428156 )     2.77714743
  WF centre and spread    6  (  2.085000,  3.536886,-10.412463 )     2.97837798
  WF centre and spread    7  (  2.085000,  1.868487, 10.305339 )     2.89841328
  WF centre and spread    8  (  2.085000,  1.962978, 10.428006 )     2.77706967
  WF centre and spread    9  (  2.085000,  1.949398, 10.412317 )     2.97825338
  Sum of centres and spreads ( 25.020001, 32.923499,-34.500037 )    26.25634245
 
     31    -0.291E-04     0.0164228088       26.2563424517       0.47  <-- CONV
        O_D=      0.0201185 O_OD=      0.4636890 O_TOT=     26.2563425 <-- SPRD
 Delta: O_D= -0.1374202E-05 O_OD= -0.2768098E-04 O_TOT= -0.2905518E-04 <-- DLTA
 ------------------------------------------------------------------------------
 Cycle:     32
  WF centre and spread    1  (  4.170000,  5.488169,-11.499869 )     2.67477045
  WF centre and spread    2  (  4.170000,  5.488197,-11.499860 )     3.24597103
  WF centre and spread    3  (  4.170000,  5.488208,-11.499861 )     3.02797702
  WF centre and spread    4  (  2.085000,  3.617885,-10.305493 )     2.89855899
  WF centre and spread    5  (  2.085000,  3.523311,-10.428150 )     2.77704538
  WF centre and spread    6  (  2.085000,  3.536871,-10.412473 )     2.97826463
  WF centre and spread    7  (  2.085000,  1.868461, 10.305344 )     2.89860989
  WF centre and spread    8  (  2.085000,  1.962984, 10.428000 )     2.77696767
  WF centre and spread    9  (  2.085000,  1.949413, 10.412327 )     2.97814001
  Sum of centres and spreads ( 25.020001, 32.923499,-34.500037 )    26.25630507
 
     32    -0.374E-04     0.0122651358       26.2563050690       0.48  <-- CONV
        O_D=      0.0201199 O_OD=      0.4636502 O_TOT=     26.2563051 <-- SPRD
 Delta: O_D=  0.1359011E-05 O_OD= -0.3874166E-04 O_TOT= -0.3738265E-04 <-- DLTA
 ------------------------------------------------------------------------------
 Cycle:     33
  WF centre and spread    1  (  4.170000,  5.488169,-11.499869 )     2.67479967
  WF centre and spread    2  (  4.170000,  5.488197,-11.499860 )     3.24584667
  WF centre and spread    3  (  4.170000,  5.488208,-11.499861 )     3.02804420
  WF centre and spread    4  (  2.085000,  3.617925,-10.305501 )     2.89884734
  WF centre and spread    5  (  2.085000,  3.523304,-10.428143 )     2.77690738
  WF centre and spread    6  (  2.085000,  3.536848,-10.412488 )     2.97811002
  WF centre and spread    7  (  2.085000,  1.868422, 10.305351 )     2.89889821
  WF centre and spread    8  (  2.085000,  1.962992, 10.427993 )     2.77682973
  WF centre and spread    9  (  2.085000,  1.949435, 10.412342 )     2.97798538
  Sum of centres and spreads ( 25.020001, 32.923499,-34.500037 )    26.25626859
 
     33    -0.365E-04     0.0131923227       26.2562685878       0.49  <-- CONV
        O_D=      0.0201236 O_OD=      0.4636100 O_TOT=     26.2562686 <-- SPRD
 Delta: O_D=  0.3761302E-05 O_OD= -0.4024249E-04 O_TOT= -0.3648118E-04 <-- DLTA
 ------------------------------------------------------------------------------
 Cycle:     34
  WF centre and spread    1  (  4.170000,  5.488169,-11.499869 )     2.67483104
  WF centre and spread    2  (  4.170000,  5.488197,-11.499860 )     3.24567712
  WF centre and spread    3  (  4.170000,  5.488208,-11.499861 )     3.02809464
  WF centre and spread    4  (  2.085000,  3.617973,-10.305510 )     2.89918046
  WF centre and spread    5  (  2.085000,  3.523298,-10.428136 )     2.77676855
  WF centre and spread    6  (  2.085000,  3.536821,-10.412506 )     2.97794355
  WF centre and spread    7  (  2.085000,  1.868374, 10.305361 )     2.89923132
  WF centre and spread    8  (  2.085000,  1.962998, 10.427987 )     2.77669098
  WF centre and spread    9  (  2.085000,  1.949463, 10.412360 )     2.97781886
  Sum of centres and spreads ( 25.020001, 32.923499,-34.500037 )    26.25623652
 
     34    -0.321E-04     0.0129415316       26.2562365247       0.50  <-- CONV
        O_D=      0.0201270 O_OD=      0.4635745 O_TOT=     26.2562365 <-- SPRD
 Delta: O_D=  0.3370067E-05 O_OD= -0.3543318E-04 O_TOT= -0.3206311E-04 <-- DLTA
 ------------------------------------------------------------------------------
 Cycle:     35
  WF centre and spread    1  (  4.170000,  5.488169,-11.499869 )     2.67486395
  WF centre and spread    2  (  4.170000,  5.488197,-11.499860 )     3.24544842
  WF centre and spread    3  (  4.170000,  5.488208,-11.499861 )     3.02810281
  WF centre and spread    4  (  2.085000,  3.618028,-10.305522 )     2.89955065
  WF centre and spread    5  (  2.085000,  3.523295,-10.428133 )     2.77665002
  WF centre and spread    6  (  2.085000,  3.536788,-10.412527 )     2.97777167
  WF centre and spread    7  (  2.085000,  1.868319, 10.305372 )     2.89960151
  WF centre and spread    8  (  2.085000,  1.963000, 10.427983 )     2.77657253
  WF centre and spread    9  (  2.085000,  1.949495, 10.412380 )     2.97764695
  Sum of centres and spreads ( 25.020001, 32.923499,-34.500037 )    26.25620850
 
     35    -0.280E-04     0.0116024034       26.2562084993       0.51  <-- CONV
        O_D=      0.0201314 O_OD=      0.4635421 O_TOT=     26.2562085 <-- SPRD
 Delta: O_D=  0.4459228E-05 O_OD= -0.3248469E-04 O_TOT= -0.2802546E-04 <-- DLTA
 ------------------------------------------------------------------------------
 Cycle:     36
  WF centre and spread    1  (  4.170000,  5.488169,-11.499869 )     2.67489492
  WF centre and spread    2  (  4.170000,  5.488197,-11.499860 )     3.24518216
  WF centre and spread    3  (  4.170000,  5.488208,-11.499861 )     3.02805930
  WF centre and spread    4  (  2.085000,  3.618087,-10.305534 )     2.89993061
  WF centre and spread    5  (  2.085000,  3.523296,-10.428131 )     2.77656593
  WF centre and spread    6  (  2.085000,  3.536752,-10.412549 )     2.97760323
  WF centre and spread    7  (  2.085000,  1.868260, 10.305384 )     2.89998150
  WF centre and spread    8  (  2.085000,  1.963000, 10.427981 )     2.77648849
  WF centre and spread    9  (  2.085000,  1.949532, 10.412402 )     2.97747847
  Sum of centres and spreads ( 25.020001, 32.923499,-34.500037 )    26.25618461
 
     36    -0.239E-04     0.0115862108       26.2561846145       0.52  <-- CONV
        O_D=      0.0201373 O_OD=      0.4635123 O_TOT=     26.2561846 <-- SPRD
 Delta: O_D=  0.5876948E-05 O_OD= -0.2976169E-04 O_TOT= -0.2388474E-04 <-- DLTA
 ------------------------------------------------------------------------------
 Cycle:     37
  WF centre and spread    1  (  4.170000,  5.488169,-11.499869 )     2.67489645
  WF centre and spread    2  (  4.170000,  5.488197,-11.499860 )     3.24513432
  WF centre and spread    3  (  4.170000,  5.488208,-11.499861 )     3.02801735
  WF centre and spread    4  (  2.085000,  3.618095,-10.305535 )     2.89996834
  WF centre and spread    5  (  2.085000,  3.523298,-10.428133 )     2.77658099
  WF centre and spread    6  (  2.085000,  3.536746,-10.412551 )     2.97758475
  WF centre and spread    7  (  2.085000,  1.868252, 10.305385 )     2.90001925
  WF centre and spread    8  (  2.085000,  1.962997, 10.427983 )     2.77650355
  WF centre and spread    9  (  2.085000,  1.949538, 10.412405 )     2.97746000
  Sum of centres and spreads ( 25.020001, 32.923499,-34.500037 )    26.25616500
 
     37    -0.196E-04     0.0125277325       26.2561650021       0.54  <-- CONV
        O_D=      0.0201360 O_OD=      0.4634940 O_TOT=     26.2561650 <-- SPRD
 Delta: O_D= -0.1290708E-05 O_OD= -0.1832170E-04 O_TOT= -0.1961241E-04 <-- DLTA
 ------------------------------------------------------------------------------
 Cycle:     38
  WF centre and spread    1  (  4.170000,  5.488169,-11.499869 )     2.67490379
  WF centre and spread    2  (  4.170000,  5.488197,-11.499860 )     3.24502188
  WF centre and spread    3  (  4.170000,  5.488208,-11.499861 )     3.02792535
  WF centre and spread    4  (  2.085000,  3.618116,-10.305537 )     2.90006216
  WF centre and spread    5  (  2.085000,  3.523304,-10.428137 )     2.77661982
  WF centre and spread    6  (  2.085000,  3.536731,-10.412558 )     2.97754074
  WF centre and spread    7  (  2.085000,  1.868231, 10.305387 )     2.90011311
  WF centre and spread    8  (  2.085000,  1.962991, 10.427988 )     2.77654236
  WF centre and spread    9  (  2.085000,  1.949553, 10.412411 )     2.97741599
  Sum of centres and spreads ( 25.020001, 32.923499,-34.500037 )    26.25614519
 
     38    -0.198E-04     0.0100902709       26.2561451938       0.55  <-- CONV
        O_D=      0.0201364 O_OD=      0.4634737 O_TOT=     26.2561452 <-- SPRD
 Delta: O_D=  0.4148158E-06 O_OD= -0.2022316E-04 O_TOT= -0.1980835E-04 <-- DLTA
 ------------------------------------------------------------------------------
 Cycle:     39
  WF centre and spread    1  (  4.170000,  5.488169,-11.499870 )     2.67491905
  WF centre and spread    2  (  4.170000,  5.488197,-11.499860 )     3.24485849
  WF centre and spread    3  (  4.170000,  5.488208,-11.499861 )     3.02780588
  WF centre and spread    4  (  2.085000,  3.618150,-10.305539 )     2.90020356
  WF centre and spread    5  (  2.085000,  3.523313,-10.428144 )     2.77667238
  WF centre and spread    6  (  2.085000,  3.536705,-10.412568 )     2.97747095
  WF centre and spread    7  (  2.085000,  1.868197, 10.305390 )     2.90025456
  WF centre and spread    8  (  2.085000,  1.962982, 10.427994 )     2.77659491
  WF centre and spread    9  (  2.085000,  1.949579, 10.412421 )     2.97734620
  Sum of centres and spreads ( 25.020001, 32.923499,-34.500037 )    26.25612597
 
     39    -0.192E-04     0.0093442218       26.2561259742       0.56  <-- CONV
        O_D=      0.0201389 O_OD=      0.4634521 O_TOT=     26.2561260 <-- SPRD
 Delta: O_D=  0.2428405E-05 O_OD= -0.2164798E-04 O_TOT= -0.1921958E-04 <-- DLTA
 ------------------------------------------------------------------------------
 Cycle:     40
  WF centre and spread    1  (  4.170000,  5.488169,-11.499870 )     2.67493951
  WF centre and spread    2  (  4.170000,  5.488197,-11.499860 )     3.24465925
  WF centre and spread    3  (  4.170000,  5.488208,-11.499861 )     3.02767404
  WF centre and spread    4  (  2.085000,  3.618199,-10.305543 )     2.90039448
  WF centre and spread    5  (  2.085000,  3.523323,-10.428151 )     2.77672697
  WF centre and spread    6  (  2.085000,  3.536667,-10.412582 )     2.97737049
  WF centre and spread    7  (  2.085000,  1.868148, 10.305393 )     2.90044554
  WF centre and spread    8  (  2.085000,  1.962972, 10.428001 )     2.77664949
  WF centre and spread    9  (  2.085000,  1.949616, 10.412436 )     2.97724573
  Sum of centres and spreads ( 25.020001, 32.923499,-34.500037 )    26.25610550
 
     40    -0.205E-04     0.0098205363       26.2561055003       0.57  <-- CONV
        O_D=      0.0201422 O_OD=      0.4634283 O_TOT=     26.2561055 <-- SPRD
 Delta: O_D=  0.3345714E-05 O_OD= -0.2381956E-04 O_TOT= -0.2047385E-04 <-- DLTA
 ------------------------------------------------------------------------------
 Cycle:     41
  WF centre and spread    1  (  4.170000,  5.488169,-11.499870 )     2.67495703
  WF centre and spread    2  (  4.170000,  5.488197,-11.499860 )     3.24447848
  WF centre and spread    3  (  4.170000,  5.488208,-11.499861 )     3.02756893
  WF centre and spread    4  (  2.085000,  3.618257,-10.305545 )     2.90060262
  WF centre and spread    5  (  2.085000,  3.523332,-10.428156 )     2.77676205
  WF centre and spread    6  (  2.085000,  3.536622,-10.412598 )     2.97725194
  WF centre and spread    7  (  2.085000,  1.868090, 10.305395 )     2.90065373
  WF centre and spread    8  (  2.085000,  1.962964, 10.428006 )     2.77668457
  WF centre and spread    9  (  2.085000,  1.949661, 10.412451 )     2.97712717
  Sum of centres and spreads ( 25.020001, 32.923499,-34.500037 )    26.25608651
 
     41    -0.190E-04     0.0096528111       26.2560865146       0.58  <-- CONV
        O_D=      0.0201471 O_OD=      0.4634044 O_TOT=     26.2560865 <-- SPRD
 Delta: O_D=  0.4909563E-05 O_OD= -0.2389530E-04 O_TOT= -0.1898574E-04 <-- DLTA
 ------------------------------------------------------------------------------
 Cycle:     42
  WF centre and spread    1  (  4.170000,  5.488169,-11.499870 )     2.67496669
  WF centre and spread    2  (  4.170000,  5.488197,-11.499860 )     3.24435375
  WF centre and spread    3  (  4.170000,  5.488208,-11.499861 )     3.02751434
  WF centre and spread    4  (  2.085000,  3.618317,-10.305545 )     2.90080058
  WF centre and spread    5  (  2.085000,  3.523337,-10.428158 )     2.77676574
  WF centre and spread    6  (  2.085000,  3.536574,-10.412613 )     2.97712723
  WF centre and spread    7  (  2.085000,  1.868030, 10.305395 )     2.90085171
  WF centre and spread    8  (  2.085000,  1.962959, 10.428008 )     2.77668827
  WF centre and spread    9  (  2.085000,  1.949710, 10.412466 )     2.97700246
  Sum of centres and spreads ( 25.020001, 32.923499,-34.500037 )    26.25607077
 
     42    -0.157E-04     0.0087614571       26.2560707663       0.59  <-- CONV
        O_D=      0.0201534 O_OD=      0.4633824 O_TOT=     26.2560708 <-- SPRD
 Delta: O_D=  0.6237098E-05 O_OD= -0.2198537E-04 O_TOT= -0.1574828E-04 <-- DLTA
 ------------------------------------------------------------------------------
 Cycle:     43
  WF centre and spread    1  (  4.170000,  5.488169,-11.499870 )     2.67496259
  WF centre and spread    2  (  4.170000,  5.488197,-11.499860 )     3.24436983
  WF centre and spread    3  (  4.170000,  5.488208,-11.499861 )     3.02753250
  WF centre and spread    4  (  2.085000,  3.618323,-10.305544 )     2.90080840
  WF centre and spread    5  (  2.085000,  3.523335,-10.428157 )     2.77674871
  WF centre and spread    6  (  2.085000,  3.536568,-10.412614 )     2.97711421
  WF centre and spread    7  (  2.085000,  1.868023, 10.305394 )     2.90085952
  WF centre and spread    8  (  2.085000,  1.962961, 10.428007 )     2.77667124
  WF centre and spread    9  (  2.085000,  1.949716, 10.412467 )     2.97698943
  Sum of centres and spreads ( 25.020001, 32.923499,-34.500037 )    26.25605642
 
     43    -0.144E-04     0.0118114112       26.2560564152       0.60  <-- CONV
        O_D=      0.0201531 O_OD=      0.4633683 O_TOT=     26.2560564 <-- SPRD
 Delta: O_D= -0.2869014E-06 O_OD= -0.1406421E-04 O_TOT= -0.1435111E-04 <-- DLTA
 ------------------------------------------------------------------------------
 Cycle:     44
  WF centre and spread    1  (  4.170000,  5.488169,-11.499870 )     2.67495026
  WF centre and spread    2  (  4.170000,  5.488197,-11.499860 )     3.24442689
  WF centre and spread    3  (  4.170000,  5.488208,-11.499861 )     3.02760016
  WF centre and spread    4  (  2.085000,  3.618345,-10.305540 )     2.90083917
  WF centre and spread    5  (  2.085000,  3.523329,-10.428153 )     2.77669460
  WF centre and spread    6  (  2.085000,  3.536547,-10.412617 )     2.97707264
  WF centre and spread    7  (  2.085000,  1.868001, 10.305390 )     2.90089026
  WF centre and spread    8  (  2.085000,  1.962967, 10.428003 )     2.77661716
  WF centre and spread    9  (  2.085000,  1.949736, 10.412470 )     2.97694787
  Sum of centres and spreads ( 25.020001, 32.923499,-34.500037 )    26.25603901
 
     44    -0.174E-04     0.0083859697       26.2560390064       0.61  <-- CONV
        O_D=      0.0201549 O_OD=      0.4633491 O_TOT=     26.2560390 <-- SPRD
 Delta: O_D=  0.1853349E-05 O_OD= -0.1926216E-04 O_TOT= -0.1740881E-04 <-- DLTA
 ------------------------------------------------------------------------------
 Cycle:     45
  WF centre and spread    1  (  4.170000,  5.488169,-11.499870 )     2.67493352
  WF centre and spread    2  (  4.170000,  5.488197,-11.499860 )     3.24450298
  WF centre and spread    3  (  4.170000,  5.488208,-11.499861 )     3.02769847
  WF centre and spread    4  (  2.085000,  3.618381,-10.305535 )     2.90088613
  WF centre and spread    5  (  2.085000,  3.523321,-10.428147 )     2.77661875
  WF centre and spread    6  (  2.085000,  3.536514,-10.412621 )     2.97701373
  WF centre and spread    7  (  2.085000,  1.867966, 10.305385 )     2.90093719
  WF centre and spread    8  (  2.085000,  1.962975, 10.427997 )     2.77654135
  WF centre and spread    9  (  2.085000,  1.949770, 10.412475 )     2.97688897
  Sum of centres and spreads ( 25.020001, 32.923499,-34.500037 )    26.25602109
 
     45    -0.179E-04     0.0091058587       26.2560210885       0.62  <-- CONV
        O_D=      0.0201593 O_OD=      0.4633268 O_TOT=     26.2560211 <-- SPRD
 Delta: O_D=  0.4343537E-05 O_OD= -0.2226149E-04 O_TOT= -0.1791795E-04 <-- DLTA
 ------------------------------------------------------------------------------
 Cycle:     46
  WF centre and spread    1  (  4.170000,  5.488169,-11.499870 )     2.67491830
  WF centre and spread    2  (  4.170000,  5.488197,-11.499860 )     3.24457180
  WF centre and spread    3  (  4.170000,  5.488208,-11.499861 )     3.02780253
  WF centre and spread    4  (  2.085000,  3.618427,-10.305529 )     2.90094507
  WF centre and spread    5  (  2.085000,  3.523314,-10.428141 )     2.77654039
  WF centre and spread    6  (  2.085000,  3.536471,-10.412628 )     2.97694567
  WF centre and spread    7  (  2.085000,  1.867920, 10.305379 )     2.90099608
  WF centre and spread    8  (  2.085000,  1.962982, 10.427991 )     2.77646302
  WF centre and spread    9  (  2.085000,  1.949812, 10.412481 )     2.97682092
  Sum of centres and spreads ( 25.020001, 32.923499,-34.500037 )    26.25600378
 
     46    -0.173E-04     0.0092586709       26.2560037803       0.64  <-- CONV
        O_D=      0.0201644 O_OD=      0.4633044 O_TOT=     26.2560038 <-- SPRD
 Delta: O_D=  0.5149613E-05 O_OD= -0.2245775E-04 O_TOT= -0.1730813E-04 <-- DLTA
 ------------------------------------------------------------------------------
 Cycle:     47
  WF centre and spread    1  (  4.170000,  5.488169,-11.499870 )     2.67490822
  WF centre and spread    2  (  4.170000,  5.488197,-11.499860 )     3.24461152
  WF centre and spread    3  (  4.170000,  5.488208,-11.499861 )     3.02789196
  WF centre and spread    4  (  2.085000,  3.618487,-10.305523 )     2.90102102
  WF centre and spread    5  (  2.085000,  3.523308,-10.428136 )     2.77647456
  WF centre and spread    6  (  2.085000,  3.536416,-10.412638 )     2.97686734
  WF centre and spread    7  (  2.085000,  1.867860, 10.305373 )     2.90107200
  WF centre and spread    8  (  2.085000,  1.962988, 10.427987 )     2.77639722
  WF centre and spread    9  (  2.085000,  1.949868, 10.412491 )     2.97674260
  Sum of centres and spreads ( 25.020001, 32.923499,-34.500037 )    26.25598644
 
     47    -0.173E-04     0.0088003994       26.2559864447       0.65  <-- CONV
        O_D=      0.0201713 O_OD=      0.4632801 O_TOT=     26.2559864 <-- SPRD
 Delta: O_D=  0.6908811E-05 O_OD= -0.2424442E-04 O_TOT= -0.1733560E-04 <-- DLTA
 ------------------------------------------------------------------------------
 Cycle:     48
  WF centre and spread    1  (  4.170000,  5.488169,-11.499870 )     2.67490220
  WF centre and spread    2  (  4.170000,  5.488197,-11.499860 )     3.24461249
  WF centre and spread    3  (  4.170000,  5.488208,-11.499861 )     3.02794829
  WF centre and spread    4  (  2.085000,  3.618561,-10.305516 )     2.90112125
  WF centre and spread    5  (  2.085000,  3.523305,-10.428134 )     2.77643114
  WF centre and spread    6  (  2.085000,  3.536348,-10.412650 )     2.97677586
  WF centre and spread    7  (  2.085000,  1.867786, 10.305367 )     2.90117221
  WF centre and spread    8  (  2.085000,  1.962991, 10.427984 )     2.77635384
  WF centre and spread    9  (  2.085000,  1.949936, 10.412503 )     2.97665114
  Sum of centres and spreads ( 25.020001, 32.923499,-34.500037 )    26.25596842
 
     48    -0.180E-04     0.0095300474       26.2559684187       0.66  <-- CONV
        O_D=      0.0201806 O_OD=      0.4632529 O_TOT=     26.2559684 <-- SPRD
 Delta: O_D=  0.9226030E-05 O_OD= -0.2725200E-04 O_TOT= -0.1802597E-04 <-- DLTA
 ------------------------------------------------------------------------------
 Cycle:     49
  WF centre and spread    1  (  4.170000,  5.488169,-11.499870 )     2.67490375
  WF centre and spread    2  (  4.170000,  5.488197,-11.499860 )     3.24458162
  WF centre and spread    3  (  4.170000,  5.488208,-11.499861 )     3.02791425
  WF centre and spread    4  (  2.085000,  3.618569,-10.305516 )     2.90113479
  WF centre and spread    5  (  2.085000,  3.523307,-10.428136 )     2.77644991
  WF centre and spread    6  (  2.085000,  3.536341,-10.412651 )     2.97676676
  WF centre and spread    7  (  2.085000,  1.867778, 10.305366 )     2.90118575
  WF centre and spread    8  (  2.085000,  1.962989, 10.427986 )     2.77637260
  WF centre and spread    9  (  2.085000,  1.949943, 10.412505 )     2.97664205
  Sum of centres and spreads ( 25.020001, 32.923499,-34.500037 )    26.25595149
 
     49    -0.169E-04     0.0117196881       26.2559514870       0.67  <-- CONV
        O_D=      0.0201796 O_OD=      0.4632369 O_TOT=     26.2559515 <-- SPRD
 Delta: O_D= -0.9528715E-06 O_OD= -0.1597886E-04 O_TOT= -0.1693173E-04 <-- DLTA
 ------------------------------------------------------------------------------
 Cycle:     50
  WF centre and spread    1  (  4.170000,  5.488169,-11.499870 )     2.67490999
  WF centre and spread    2  (  4.170000,  5.488197,-11.499860 )     3.24451083
  WF centre and spread    3  (  4.170000,  5.488208,-11.499861 )     3.02784008
  WF centre and spread    4  (  2.085000,  3.618588,-10.305516 )     2.90116800
  WF centre and spread    5  (  2.085000,  3.523312,-10.428140 )     2.77649799
  WF centre and spread    6  (  2.085000,  3.536323,-10.412655 )     2.97674628
  WF centre and spread    7  (  2.085000,  1.867759, 10.305366 )     2.90121900
  WF centre and spread    8  (  2.085000,  1.962983, 10.427990 )     2.77642066
  WF centre and spread    9  (  2.085000,  1.949961, 10.412508 )     2.97662158
  Sum of centres and spreads ( 25.020001, 32.923499,-34.500037 )    26.25593441
 
     50    -0.171E-04     0.0093451488       26.2559344089       0.68  <-- CONV
        O_D=      0.0201802 O_OD=      0.4632192 O_TOT=     26.2559344 <-- SPRD
 Delta: O_D=  0.5922207E-06 O_OD= -0.1767038E-04 O_TOT= -0.1707816E-04 <-- DLTA
 ------------------------------------------------------------------------------
 Cycle:     51
  WF centre and spread    1  (  4.170000,  5.488169,-11.499870 )     2.67492098
  WF centre and spread    2  (  4.170000,  5.488197,-11.499860 )     3.24441326
  WF centre and spread    3  (  4.170000,  5.488208,-11.499861 )     3.02774617
  WF centre and spread    4  (  2.085000,  3.618619,-10.305514 )     2.90121356
  WF centre and spread    5  (  2.085000,  3.523320,-10.428145 )     2.77656558
  WF centre and spread    6  (  2.085000,  3.536294,-10.412661 )     2.97671500
  WF centre and spread    7  (  2.085000,  1.867728, 10.305365 )     2.90126459
  WF centre and spread    8  (  2.085000,  1.962976, 10.427995 )     2.77648823
  WF centre and spread    9  (  2.085000,  1.949990, 10.412514 )     2.97659031
  Sum of centres and spreads ( 25.020001, 32.923499,-34.500037 )    26.25591769
 
     51    -0.167E-04     0.0087094202       26.2559176892       0.69  <-- CONV
        O_D=      0.0201829 O_OD=      0.4631998 O_TOT=     26.2559177 <-- SPRD
 Delta: O_D=  0.2706585E-05 O_OD= -0.1942625E-04 O_TOT= -0.1671967E-04 <-- DLTA
 ------------------------------------------------------------------------------
 Cycle:     52
  WF centre and spread    1  (  4.170000,  5.488169,-11.499870 )     2.67493271
  WF centre and spread    2  (  4.170000,  5.488197,-11.499860 )     3.24430444
  WF centre and spread    3  (  4.170000,  5.488208,-11.499861 )     3.02764655
  WF centre and spread    4  (  2.085000,  3.618666,-10.305512 )     2.90127195
  WF centre and spread    5  (  2.085000,  3.523329,-10.428152 )     2.77664156
  WF centre and spread    6  (  2.085000,  3.536250,-10.412669 )     2.97666996
  WF centre and spread    7  (  2.085000,  1.867681, 10.305362 )     2.90132301
  WF centre and spread    8  (  2.085000,  1.962967, 10.428002 )     2.77656419
  WF centre and spread    9  (  2.085000,  1.950034, 10.412522 )     2.97654529
  Sum of centres and spreads ( 25.020001, 32.923499,-34.500037 )    26.25589965
 
     52    -0.180E-04     0.0091639419       26.2558996533       0.70  <-- CONV
        O_D=      0.0201868 O_OD=      0.4631779 O_TOT=     26.2558997 <-- SPRD
 Delta: O_D=  0.3888551E-05 O_OD= -0.2192444E-04 O_TOT= -0.1803589E-04 <-- DLTA
 ------------------------------------------------------------------------------
 Cycle:     53
  WF centre and spread    1  (  4.170000,  5.488169,-11.499870 )     2.67493752
  WF centre and spread    2  (  4.170000,  5.488197,-11.499860 )     3.24422181
  WF centre and spread    3  (  4.170000,  5.488208,-11.499861 )     3.02757274
  WF centre and spread    4  (  2.085000,  3.618722,-10.305507 )     2.90133497
  WF centre and spread    5  (  2.085000,  3.523336,-10.428157 )     2.77670116
  WF centre and spread    6  (  2.085000,  3.536196,-10.412678 )     2.97661456
  WF centre and spread    7  (  2.085000,  1.867625, 10.305357 )     2.90138605
  WF centre and spread    8  (  2.085000,  1.962960, 10.428007 )     2.77662377
  WF centre and spread    9  (  2.085000,  1.950087, 10.412531 )     2.97648990
  Sum of centres and spreads ( 25.020001, 32.923499,-34.500037 )    26.25588248
 
     53    -0.172E-04     0.0091289744       26.2558824756       0.72  <-- CONV
        O_D=      0.0201924 O_OD=      0.4631550 O_TOT=     26.2558825 <-- SPRD
 Delta: O_D=  0.5641993E-05 O_OD= -0.2281968E-04 O_TOT= -0.1717769E-04 <-- DLTA
 ------------------------------------------------------------------------------
 Cycle:     54
  WF centre and spread    1  (  4.170000,  5.488169,-11.499870 )     2.67493168
  WF centre and spread    2  (  4.170000,  5.488197,-11.499860 )     3.24418965
  WF centre and spread    3  (  4.170000,  5.488208,-11.499861 )     3.02754432
  WF centre and spread    4  (  2.085000,  3.618781,-10.305501 )     2.90139733
  WF centre and spread    5  (  2.085000,  3.523339,-10.428159 )     2.77672803
  WF centre and spread    6  (  2.085000,  3.536138,-10.412686 )     2.97655115
  WF centre and spread    7  (  2.085000,  1.867565, 10.305351 )     2.90144842
  WF centre and spread    8  (  2.085000,  1.962957, 10.428009 )     2.77665064
  WF centre and spread    9  (  2.085000,  1.950145, 10.412540 )     2.97642650
  Sum of centres and spreads ( 25.020001, 32.923499,-34.500037 )    26.25586771
 
     54    -0.148E-04     0.0083937847       26.2558677107       0.73  <-- CONV
        O_D=      0.0201993 O_OD=      0.4631334 O_TOT=     26.2558677 <-- SPRD
 Delta: O_D=  0.6894625E-05 O_OD= -0.2165954E-04 O_TOT= -0.1476492E-04 <-- DLTA
 ------------------------------------------------------------------------------
 Cycle:     55
  WF centre and spread    1  (  4.170000,  5.488169,-11.499870 )     2.67492588
  WF centre and spread    2  (  4.170000,  5.488197,-11.499860 )     3.24421009
  WF centre and spread    3  (  4.170000,  5.488208,-11.499861 )     3.02756279
  WF centre and spread    4  (  2.085000,  3.618787,-10.305499 )     2.90139948
  WF centre and spread    5  (  2.085000,  3.523337,-10.428157 )     2.77671133
  WF centre and spread    6  (  2.085000,  3.536132,-10.412687 )     2.97654214
  WF centre and spread    7  (  2.085000,  1.867560, 10.305349 )     2.90145057
  WF centre and spread    8  (  2.085000,  1.962958, 10.428007 )     2.77663394
  WF centre and spread    9  (  2.085000,  1.950151, 10.412540 )     2.97641750
  Sum of centres and spreads ( 25.020001, 32.923499,-34.500037 )    26.25585372
 
     55    -0.140E-04     0.0116833051       26.2558537180       0.74  <-- CONV
        O_D=      0.0201991 O_OD=      0.4631196 O_TOT=     26.2558537 <-- SPRD
 Delta: O_D= -0.2297162E-06 O_OD= -0.1376303E-04 O_TOT= -0.1399274E-04 <-- DLTA
 ------------------------------------------------------------------------------
 Cycle:     56
  WF centre and spread    1  (  4.170000,  5.488169,-11.499870 )     2.67490791
  WF centre and spread    2  (  4.170000,  5.488197,-11.499860 )     3.24428285
  WF centre and spread    3  (  4.170000,  5.488208,-11.499861 )     3.02763228
  WF centre and spread    4  (  2.085000,  3.618809,-10.305494 )     2.90141002
  WF centre and spread    5  (  2.085000,  3.523331,-10.428153 )     2.77665786
  WF centre and spread    6  (  2.085000,  3.536110,-10.412688 )     2.97651438
  WF centre and spread    7  (  2.085000,  1.867538, 10.305345 )     2.90146109
  WF centre and spread    8  (  2.085000,  1.962965, 10.428003 )     2.77658048
  WF centre and spread    9  (  2.085000,  1.950173, 10.412541 )     2.97638975
  Sum of centres and spreads ( 25.020001, 32.923499,-34.500037 )    26.25583662
 
     56    -0.171E-04     0.0082823111       26.2558366233       0.75  <-- CONV
        O_D=      0.0202009 O_OD=      0.4631007 O_TOT=     26.2558366 <-- SPRD
 Delta: O_D=  0.1779104E-05 O_OD= -0.1887377E-04 O_TOT= -0.1709467E-04 <-- DLTA
 ------------------------------------------------------------------------------
 Cycle:     57
  WF centre and spread    1  (  4.170000,  5.488169,-11.499870 )     2.67488406
  WF centre and spread    2  (  4.170000,  5.488197,-11.499860 )     3.24438250
  WF centre and spread    3  (  4.170000,  5.488208,-11.499861 )     3.02773436
  WF centre and spread    4  (  2.085000,  3.618843,-10.305487 )     2.90142482
  WF centre and spread    5  (  2.085000,  3.523323,-10.428147 )     2.77658343
  WF centre and spread    6  (  2.085000,  3.536075,-10.412690 )     2.97647621
  WF centre and spread    7  (  2.085000,  1.867504, 10.305338 )     2.90147585
  WF centre and spread    8  (  2.085000,  1.962973, 10.427997 )     2.77650608
  WF centre and spread    9  (  2.085000,  1.950208, 10.412544 )     2.97635158
  Sum of centres and spreads ( 25.020001, 32.923499,-34.500037 )    26.25581890
 
     57    -0.177E-04     0.0090599335       26.2558189001       0.76  <-- CONV
        O_D=      0.0202052 O_OD=      0.4630787 O_TOT=     26.2558189 <-- SPRD
 Delta: O_D=  0.4366450E-05 O_OD= -0.2208964E-04 O_TOT= -0.1772319E-04 <-- DLTA
 ------------------------------------------------------------------------------
 Cycle:     58
  WF centre and spread    1  (  4.170000,  5.488169,-11.499870 )     2.67486244
  WF centre and spread    2  (  4.170000,  5.488197,-11.499860 )     3.24447836
  WF centre and spread    3  (  4.170000,  5.488208,-11.499861 )     3.02784312
[...]
  WF centre and spread    4  (  2.085000,  3.634899,-10.304133 )     2.91203585
  WF centre and spread    5  (  2.085000,  3.523326,-10.428152 )     2.77659306
  WF centre and spread    6  (  2.085000,  3.519977,-10.413922 )     2.96193562
  WF centre and spread    7  (  2.085000,  1.851450, 10.303984 )     2.91208451
  WF centre and spread    8  (  2.085000,  1.962970, 10.428002 )     2.77651571
  WF centre and spread    9  (  2.085000,  1.966304, 10.413774 )     2.96181625
  Sum of centres and spreads ( 25.020001, 32.923499,-34.500037 )    26.24824177
 
    499    -0.153E-04     0.0123679455       26.2482417732       7.24  <-- CONV
        O_D=      0.0219862 O_OD=      0.4537205 O_TOT=     26.2482418 <-- SPRD
 Delta: O_D= -0.2916273E-06 O_OD= -0.1504257E-04 O_TOT= -0.1533420E-04 <-- DLTA
 ------------------------------------------------------------------------------
 Cycle:    500
  WF centre and spread    1  (  4.170000,  5.488169,-11.499870 )     2.67297586
  WF centre and spread    2  (  4.170000,  5.488197,-11.499860 )     3.24440074
  WF centre and spread    3  (  4.170000,  5.488208,-11.499861 )     3.02988610
  WF centre and spread    4  (  2.085000,  3.634917,-10.304128 )     2.91206342
  WF centre and spread    5  (  2.085000,  3.523324,-10.428150 )     2.77658611
  WF centre and spread    6  (  2.085000,  3.519958,-10.413920 )     2.96190548
  WF centre and spread    7  (  2.085000,  1.851432, 10.303980 )     2.91211209
  WF centre and spread    8  (  2.085000,  1.962972, 10.428000 )     2.77650876
  WF centre and spread    9  (  2.085000,  1.966323, 10.413773 )     2.96178610
  Sum of centres and spreads ( 25.020001, 32.923499,-34.500037 )    26.24822466
 
    500    -0.171E-04     0.0085057879       26.2482246558       7.26  <-- CONV
        O_D=      0.0219866 O_OD=      0.4537031 O_TOT=     26.2482247 <-- SPRD
 Delta: O_D=  0.3632679E-06 O_OD= -0.1748063E-04 O_TOT= -0.1711736E-04 <-- DLTA
 ------------------------------------------------------------------------------

 Writing checkpoint file wannier90.dn.chk... done

 Final State
  WF centre and spread    1  (  4.170000,  5.488169,-11.499870 )     2.67297586
  WF centre and spread    2  (  4.170000,  5.488197,-11.499860 )     3.24440074
  WF centre and spread    3  (  4.170000,  5.488208,-11.499861 )     3.02988610
  WF centre and spread    4  (  2.085000,  3.634917,-10.304128 )     2.91206342
  WF centre and spread    5  (  2.085000,  3.523324,-10.428150 )     2.77658611
  WF centre and spread    6  (  2.085000,  3.519958,-10.413920 )     2.96190548
  WF centre and spread    7  (  2.085000,  1.851432, 10.303980 )     2.91211209
  WF centre and spread    8  (  2.085000,  1.962972, 10.428000 )     2.77650876
  WF centre and spread    9  (  2.085000,  1.966323, 10.413773 )     2.96178610
  Sum of centres and spreads ( 25.020001, 32.923499,-34.500037 )    26.24822466
 
         Spreads (Ang^2)       Omega I      =    25.772535004
        ================       Omega D      =     0.021986585
                               Omega OD     =     0.453703067
    Final Spread (Ang^2)       Omega Total  =    26.248224656
 ------------------------------------------------------------------------------
  Wannier centres written to file wannier90.dn_centres.xyz
 Time for wannierise            7.180 (sec)

 Writing checkpoint file wannier90.dn.chk... done

 *---------------------------------------------------------------------------*
 |                               PLOTTING                                    |
 *---------------------------------------------------------------------------*
 
 Time for plotting              0.040 (sec)
 Total Execution Time           7.316 (sec)

 *===========================================================================*
 |                             TIMING INFORMATION                            |
 *===========================================================================*
 |    Tag                                                Ncalls      Time (s)|
 |---------------------------------------------------------------------------|
 |kmesh: get                                        :         1         0.032|
 |overlap: read                                     :         1         0.056|
 |wann: main                                        :         1         7.180|
 |plot: main                                        :         1         0.040|
 *---------------------------------------------------------------------------*
 
 All done: wannier90 exiting
 
             +---------------------------------------------------+
             |                                                   |
             |                   WANNIER90                       |
             |                                                   |
             +---------------------------------------------------+
             |                                                   |
             |        Welcome to the Maximally-Localized         |
             |        Generalized Wannier Functions code         |
             |            http://www.wannier.org                 |
             |                                                   |
             |  Wannier90 Authors:                               |
             |    Arash A. Mostofi   (Imperial College London)   |
             |    Jonathan R. Yates  (University of Oxford)      |
             |    Young-Su Lee       (KIST, S. Korea)            |
             |                                                   |
             |  Wannier90 Contributors:                          |
             |    Matthew Shelley    (Imperial College London)   |
             |    Nicolas Poilvert   (MIT)                       |
             |                                                   |
             |  Wannier77 Authors:                               |
             |    Nicola Marzari     (University of Oxford)      |
             |    Ivo Souza          (UC Berkeley)               |
             |    David Vanderbilt   (Rutgers University)        |
             |                                                   |
             |  Please cite                                      |
             |                                                   |
             |  [ref] "Wannier90: A Tool for Obtaining Maximally |
             |         Localised Wannier Functions"              |
             |        A. A. Mostofi, J. R. Yates, Y.-S. Lee,     |
             |        I. Souza, D. Vanderbilt and N. Marzari     |
             |        Comput. Phys. Commun. 178, 685 (2008)      |
             |                                                   |
             |  in any publications arising from the use of      |
             |  this code. For the method please cite            |
             |                                                   |
             |  [ref] "Maximally Localized Generalised Wannier   |
             |         Functions for Composite Energy Bands"     |
             |         N. Marzari and D. Vanderbilt              |
             |         Phys. Rev. B 56 12847 (1997)              |
             |                                                   |
             |  [ref] "Maximally Localized Wannier Functions     |
             |         for Entangled Energy Bands"               |
             |         I. Souza, N. Marzari and D. Vanderbilt    |
             |         Phys. Rev. B 65 035109 (2001)             |
             |                                                   |
             |                                                   |
             | Copyright (c) 1996-2010                           |
             |        A. A. Mostofi, J. R. Yates, Y.-S. Lee,     |
             |        I. Souza, D. Vanderbilt and N. Marzari     |
             |                                                   |
             |        Release: 1.2        24th Jan 2010          |
             |                                                   |
             | This program is free software; you can            |
             | redistribute it and/or modify it under the terms  |
             | of the GNU General Public License as published by |
             | the Free Software Foundation; either version 2 of |
             | the License, or (at your option) any later version|
             |                                                   |
             | This program is distributed in the hope that it   |
             | will be useful, but WITHOUT ANY WARRANTY; without |
             | even the implied warranty of MERCHANTABILITY or   |
             | FITNESS FOR A PARTICULAR PURPOSE. See the GNU     |
             | General Public License for more details.          |
             |                                                   |
             | You should have received a copy of the GNU General|
             | Public License along with this program; if not,   |
             | write to the Free Software Foundation, Inc.,      |
             | 675 Mass Ave, Cambridge, MA 02139, USA.           |
             |                                                   |
             +---------------------------------------------------+
             |    Execution started on 26Dec2017 at 12:01:14     |
             +---------------------------------------------------+
 
                                    ------
                                    SYSTEM
                                    ------
 
                              Lattice Vectors (Ang)
                    a_1     4.170000   0.000000   0.000000
                    a_2     0.000000   5.490000   0.000000
                    a_3     0.000000   0.000000  23.000000
 
                   Unit Cell Volume:     526.54589  (Ang^3)
 
                        Reciprocal-Space Vectors (Ang^-1)
                    b_1     1.506759   0.000000   0.000000
                    b_2     0.000000   1.144478   0.000000
                    b_3     0.000000   0.000000   0.273182
  
 *----------------------------------------------------------------------------*
 |   Site       Fractional Coordinate          Cartesian Coordinate (Ang)     |
 +----------------------------------------------------------------------------+
 | Te   1   1.00000   0.99967   0.50001   |    4.17000   5.48819  11.50013    |
 | Te   2   0.50000   0.65538   0.54715   |    2.08500   3.59803  12.58438    |
 | Te   3   0.50000   0.34395   0.45285   |    2.08500   1.88829  10.41549    |
 *----------------------------------------------------------------------------*
  
                                ------------
                                K-POINT GRID
                                ------------
  
             Grid size = 16 x 10 x  1      Total points =  160
  
  
 *---------------------------------- MAIN ------------------------------------*
 |  Number of Wannier Functions               :                 9             |
 |  Number of input Bloch states              :                 9             |
 |  Output verbosity (1=low, 5=high)          :                 1             |
 |  Timing Level (1=low, 5=high)              :                 1             |
 |  Optimisation (0=memory, 3=speed)          :                 3             |
 |  Length Unit                               :               Ang             |
 |  Post-processing setup (write *.nnkp)      :                 F             |
 |  Using Gamma-only branch of algorithms     :                 F             |
 *----------------------------------------------------------------------------*
 *------------------------------- WANNIERISE ---------------------------------*
 |  Total number of iterations                :               500             |
 |  Number of CG steps before reset           :                 5             |
 |  Trial step length for line search         :             2.000             |
 |  Convergence tolerence                     :         0.100E-09             |
 |  Convergence window                        :                -1             |
 |  Iterations between writing output         :                 1             |
 |  Iterations between backing up to disk     :               100             |
 |  Write r^2_nm to file                      :                 F             |
 |  Write xyz WF centres to file              :                 T             |
 |  Use guiding centre to control phases      :                 T             |
 |  Iterations before starting guiding centres:                 0             |
 |  Iterations between using guiding centres  :                 1             |
 *----------------------------------------------------------------------------*
 *-------------------------------- PLOTTING ----------------------------------*
 |  Plotting interpolated bandstructure       :                 T             |
 |   Number of K-path sections                :                 5             |
 |   Divisions along first K-path section     :                40             |
 |   Output format                            :          gnuplot              |
 |   Output mode                              :               s-k             |
 *----------------------------------------------------------------------------*
 |   K-space path sections:                                                   |
 |    From:  G    0.000  0.000  0.000     To:  Y    0.000  0.500  0.000       |
 |    From:  Y    0.000  0.500  0.000     To:  M    0.500  0.500  0.000       |
 |    From:  M    0.500  0.500  0.000     To:  X    0.500  0.000  0.000       |
 |    From:  X    0.500  0.000  0.000     To:  G    0.000  0.000  0.000       |
 |    From:  G    0.000  0.000  0.000     To:  M    0.500  0.500  0.000       |
 *----------------------------------------------------------------------------*
 |  Plotting Hamiltonian in WF basis          :                 T             |
 *----------------------------------------------------------------------------*
 Time to read parameters        0.004 (sec)

 *---------------------------------- K-MESH ----------------------------------*
 +----------------------------------------------------------------------------+
 |                    Distance to Nearest-Neighbour Shells                    |
 |                    ------------------------------------                    |
 |          Shell             Distance (Ang^-1)          Multiplicity         |
 |          -----             -----------------          ------------         |
 |             1                   0.094172                      2            |
 |             2                   0.114448                      2            |
 |             3                   0.148212                      4            |
 |             4                   0.188345                      2            |
 |             5                   0.220391                      4            |
 |             6                   0.228896                      2            |
 |             7                   0.247511                      4            |
 |             8                   0.273182                      2            |
 |             9                   0.282517                      2            |
 |            10                   0.288958                      4            |
 |            11                   0.296187                      4            |
 |            12                   0.296424                      4            |
 +----------------------------------------------------------------------------+
 | The b-vectors are chosen automatically                                     |
 | SVD found small singular value, Rejecting this shell and trying the next   |
 | SVD found small singular value, Rejecting this shell and trying the next   |
 | SVD found small singular value, Rejecting this shell and trying the next   |
 | The following shells are used:   1,  2,  8                                 |
 +----------------------------------------------------------------------------+
 |                        Shell   # Nearest-Neighbours                        |
 |                        -----   --------------------                        |
 |                          1               2                                 |
 |                          2               2                                 |
 |                          8               2                                 |
 +----------------------------------------------------------------------------+
 | Completeness relation is fully satisfied [Eq. (B1), PRB 56, 12847 (1997)]  |
 +----------------------------------------------------------------------------+
 |                  b_k Vectors (Ang^-1) and Weights (Ang^2)                  |
 |                  ----------------------------------------                  |
 |            No.         b_k(x)      b_k(y)      b_k(z)        w_b           |
 |            ---        --------------------------------     --------        |
 |             1         0.094172    0.000000    0.000000    56.379648        |
 |             2        -0.094172    0.000000    0.000000    56.379648        |
 |             3         0.000000    0.114448    0.000000    38.172880        |
 |             4         0.000000   -0.114448    0.000000    38.172880        |
 |             5         0.000000    0.000000    0.273182     6.699863        |
 |             6         0.000000    0.000000   -0.273182     6.699863        |
 +----------------------------------------------------------------------------+
 |                           b_k Directions (Ang^-1)                          |
 |                           -----------------------                          |
 |            No.           x           y           z                         |
 |            ---        --------------------------------                     |
 |             1         0.094172    0.000000    0.000000                     |
 |             2         0.000000    0.114448    0.000000                     |
 |             3         0.000000    0.000000    0.273182                     |
 +----------------------------------------------------------------------------+
  
 *============================================================================*
 |                              MEMORY ESTIMATE                               |
 |         Maximum RAM allocated during each phase of the calculation         |
 *============================================================================*
 |                            Wannierise:            3.56 Mb                  |
 *----------------------------------------------------------------------------*
  
 Reading restart information from file wannier90.dn.chk :
 written on 26Dec2017 at 11:59:25 ... done

 Restarting Wannier90 from plotting routines ...

 *---------------------------------------------------------------------------*
 |                               PLOTTING                                    |
 *---------------------------------------------------------------------------*
 
 
 Calculating interpolated band-structure
 
 Time to calculate interpolated band structure       0.024 (sec)
 
 Time for plotting              0.056 (sec)
 Total Execution Time           0.144 (sec)

 *===========================================================================*
 |                             TIMING INFORMATION                            |
 *===========================================================================*
 |    Tag                                                Ncalls      Time (s)|
 |---------------------------------------------------------------------------|
 |kmesh: get                                        :         1         0.036|
 |plot: main                                        :         1         0.056|
 *---------------------------------------------------------------------------*
 
 All done: wannier90 exiting
