   3   3   1   0
  0.3508934E+02  0.4518641E-09  0.4518641E-09  0.5953197E-09  0.5000000E-15
   1.0000000000000000E-004
  CAR 
 Te-a                                    
     15.00000000    -15.00000000 3000      5.38804602      1.00000000
    -15.000  0.0000E+00  0.0000E+00
    -14.990  0.0000E+00  0.0000E+00
    -14.980  0.0000E+00  0.0000E+00
    -14.970  0.0000E+00  0.0000E+00
    -14.960  0.0000E+00  0.0000E+00
    -14.950  0.0000E+00  0.0000E+00
    -14.940  0.0000E+00  0.0000E+00
    -14.930  0.0000E+00  0.0000E+00
    -14.920  0.0000E+00  0.0000E+00
    -14.910  0.0000E+00  0.0000E+00
    -14.900  0.0000E+00  0.0000E+00
    -14.890  0.0000E+00  0.0000E+00
    -14.880  0.0000E+00  0.0000E+00
    -14.870  0.0000E+00  0.0000E+00
    -14.860  0.0000E+00  0.0000E+00
    -14.850  0.0000E+00  0.0000E+00
    -14.840  0.0000E+00  0.0000E+00
    -14.830  0.0000E+00  0.0000E+00
    -14.820  0.0000E+00  0.0000E+00
    -14.810  0.0000E+00  0.0000E+00
    -14.800  0.0000E+00  0.0000E+00
    -14.790  0.0000E+00  0.0000E+00
    -14.780  0.0000E+00  0.0000E+00
    -14.770  0.0000E+00  0.0000E+00
    -14.760  0.0000E+00  0.0000E+00
    -14.750  0.0000E+00  0.0000E+00
    -14.740  0.0000E+00  0.0000E+00
    -14.730  0.0000E+00  0.0000E+00
    -14.720  0.0000E+00  0.0000E+00
    -14.710  0.0000E+00  0.0000E+00
    -14.700  0.0000E+00  0.0000E+00
    -14.690  0.0000E+00  0.0000E+00
    -14.680  0.0000E+00  0.0000E+00
    -14.670  0.0000E+00  0.0000E+00
    -14.660  0.0000E+00  0.0000E+00
    -14.650  0.0000E+00  0.0000E+00
    -14.640  0.0000E+00  0.0000E+00
    -14.630  0.0000E+00  0.0000E+00
    -14.620  0.0000E+00  0.0000E+00
    -14.610  0.0000E+00  0.0000E+00
    -14.600  0.0000E+00  0.0000E+00
    -14.590  0.0000E+00  0.0000E+00
    -14.580  0.0000E+00  0.0000E+00
    -14.570  0.0000E+00  0.0000E+00
    -14.560  0.0000E+00  0.0000E+00
    -14.550  0.0000E+00  0.0000E+00
    -14.540  0.0000E+00  0.0000E+00
    -14.530  0.0000E+00  0.0000E+00
    -14.520  0.0000E+00  0.0000E+00
    -14.510  0.0000E+00  0.0000E+00
    -14.500  0.0000E+00  0.0000E+00
    -14.490  0.0000E+00  0.0000E+00
    -14.480  0.0000E+00  0.0000E+00
    -14.470  0.0000E+00  0.0000E+00
    -14.460  0.0000E+00  0.0000E+00
    -14.450  0.0000E+00  0.0000E+00
    -14.440  0.0000E+00  0.0000E+00
    -14.430  0.0000E+00  0.0000E+00
    -14.420  0.0000E+00  0.0000E+00
    -14.410  0.0000E+00  0.0000E+00
    -14.400  0.0000E+00  0.0000E+00
    -14.390  0.0000E+00  0.0000E+00
    -14.380  0.0000E+00  0.0000E+00
    -14.370  0.0000E+00  0.0000E+00
    -14.360  0.0000E+00  0.0000E+00
    -14.350  0.0000E+00  0.0000E+00
    -14.340  0.0000E+00  0.0000E+00
    -14.330  0.0000E+00  0.0000E+00
    -14.320  0.0000E+00  0.0000E+00
    -14.310  0.0000E+00  0.0000E+00
    -14.300  0.0000E+00  0.0000E+00
    -14.290  0.0000E+00  0.0000E+00
    -14.280  0.0000E+00  0.0000E+00
    -14.270  0.0000E+00  0.0000E+00
    -14.260  0.0000E+00  0.0000E+00
    -14.250  0.0000E+00  0.0000E+00
    -14.240  0.0000E+00  0.0000E+00
    -14.230  0.0000E+00  0.0000E+00
    -14.220  0.0000E+00  0.0000E+00
    -14.210  0.0000E+00  0.0000E+00
    -14.200  0.0000E+00  0.0000E+00
    -14.190  0.0000E+00  0.0000E+00
    -14.180  0.0000E+00  0.0000E+00
    -14.170  0.0000E+00  0.0000E+00
    -14.160  0.0000E+00  0.0000E+00
    -14.150  0.0000E+00  0.0000E+00
    -14.140  0.0000E+00  0.0000E+00
    -14.130  0.0000E+00  0.0000E+00
    -14.120  0.0000E+00  0.0000E+00
    -14.110  0.0000E+00  0.0000E+00
    -14.100  0.0000E+00  0.0000E+00
    -14.090  0.0000E+00  0.0000E+00
    -14.080  0.0000E+00  0.0000E+00
    -14.070  0.0000E+00  0.0000E+00
    -14.060  0.0000E+00  0.0000E+00
    -14.050  0.0000E+00  0.0000E+00
    -14.040  0.0000E+00  0.0000E+00
    -14.030  0.0000E+00  0.0000E+00
    -14.020  0.0000E+00  0.0000E+00
    -14.010  0.0000E+00  0.0000E+00
    -14.000  0.0000E+00  0.0000E+00
    -13.990  0.0000E+00  0.0000E+00
    -13.980  0.0000E+00  0.0000E+00
    -13.970  0.0000E+00  0.0000E+00
    -13.960  0.0000E+00  0.0000E+00
    -13.950  0.0000E+00  0.0000E+00
    -13.940  0.0000E+00  0.0000E+00
    -13.930  0.0000E+00  0.0000E+00
    -13.920  0.0000E+00  0.0000E+00
    -13.910  0.0000E+00  0.0000E+00
    -13.900  0.0000E+00  0.0000E+00
    -13.890  0.0000E+00  0.0000E+00
    -13.880  0.0000E+00  0.0000E+00
    -13.870  0.0000E+00  0.0000E+00
    -13.860  0.0000E+00  0.0000E+00
    -13.850  0.0000E+00  0.0000E+00
    -13.840  0.0000E+00  0.0000E+00
    -13.830  0.0000E+00  0.0000E+00
    -13.820  0.0000E+00  0.0000E+00
    -13.810  0.0000E+00  0.0000E+00
    -13.800  0.0000E+00  0.0000E+00
    -13.790  0.0000E+00  0.0000E+00
    -13.780  0.0000E+00  0.0000E+00
    -13.770  0.0000E+00  0.0000E+00
    -13.760  0.0000E+00  0.0000E+00
    -13.750  0.0000E+00  0.0000E+00
    -13.740  0.0000E+00  0.0000E+00
    -13.730  0.0000E+00  0.0000E+00
    -13.720  0.0000E+00  0.0000E+00
    -13.710  0.0000E+00  0.0000E+00
    -13.700  0.0000E+00  0.0000E+00
    -13.690  0.0000E+00  0.0000E+00
    -13.680  0.0000E+00  0.0000E+00
    -13.670  0.0000E+00  0.0000E+00
    -13.660  0.0000E+00  0.0000E+00
    -13.650  0.0000E+00  0.0000E+00
    -13.640  0.0000E+00  0.0000E+00
    -13.630  0.0000E+00  0.0000E+00
    -13.620  0.0000E+00  0.0000E+00
    -13.610  0.0000E+00  0.0000E+00
    -13.600  0.0000E+00  0.0000E+00
    -13.590  0.0000E+00  0.0000E+00
    -13.580  0.0000E+00  0.0000E+00
    -13.570  0.0000E+00  0.0000E+00
    -13.560  0.0000E+00  0.0000E+00
    -13.550  0.0000E+00  0.0000E+00
    -13.540  0.0000E+00  0.0000E+00
    -13.530  0.0000E+00  0.0000E+00
    -13.520  0.0000E+00  0.0000E+00
    -13.510  0.0000E+00  0.0000E+00
    -13.499  0.0000E+00  0.0000E+00
    -13.489  0.0000E+00  0.0000E+00
    -13.479  0.0000E+00  0.0000E+00
    -13.469  0.0000E+00  0.0000E+00
    -13.459  0.0000E+00  0.0000E+00
    -13.449  0.0000E+00  0.0000E+00
    -13.439  0.0000E+00  0.0000E+00
    -13.429  0.0000E+00  0.0000E+00
    -13.419  0.0000E+00  0.0000E+00
    -13.409  0.0000E+00  0.0000E+00
    -13.399  0.0000E+00  0.0000E+00
    -13.389  0.0000E+00  0.0000E+00
    -13.379  0.0000E+00  0.0000E+00
    -13.369  0.0000E+00  0.0000E+00
    -13.359  0.0000E+00  0.0000E+00
    -13.349  0.0000E+00  0.0000E+00
    -13.339  0.0000E+00  0.0000E+00
    -13.329  0.0000E+00  0.0000E+00
    -13.319  0.0000E+00  0.0000E+00
    -13.309  0.0000E+00  0.0000E+00
    -13.299  0.0000E+00  0.0000E+00
    -13.289  0.0000E+00  0.0000E+00
    -13.279  0.0000E+00  0.0000E+00
    -13.269  0.0000E+00  0.0000E+00
    -13.259  0.0000E+00  0.0000E+00
    -13.249  0.0000E+00  0.0000E+00
    -13.239  0.0000E+00  0.0000E+00
    -13.229  0.0000E+00  0.0000E+00
    -13.219  0.0000E+00  0.0000E+00
    -13.209  0.0000E+00  0.0000E+00
    -13.199  0.0000E+00  0.0000E+00
    -13.189  0.0000E+00  0.0000E+00
    -13.179  0.0000E+00  0.0000E+00
    -13.169  0.0000E+00  0.0000E+00
    -13.159  0.0000E+00  0.0000E+00
    -13.149  0.0000E+00  0.0000E+00
    -13.139  0.0000E+00  0.0000E+00
    -13.129  0.0000E+00  0.0000E+00
    -13.119  0.0000E+00  0.0000E+00
    -13.109  0.0000E+00  0.0000E+00
    -13.099  0.0000E+00  0.0000E+00
    -13.089  0.0000E+00  0.0000E+00
    -13.079  0.0000E+00  0.0000E+00
    -13.069  0.0000E+00  0.0000E+00
    -13.059  0.0000E+00  0.0000E+00
    -13.049  0.0000E+00  0.0000E+00
    -13.039  0.0000E+00  0.0000E+00
    -13.029  0.0000E+00  0.0000E+00
    -13.019  0.0000E+00  0.0000E+00
    -13.009  0.0000E+00  0.0000E+00
    -12.999  0.0000E+00  0.0000E+00
    -12.989  0.0000E+00  0.0000E+00
    -12.979  0.0000E+00  0.0000E+00
    -12.969  0.0000E+00  0.0000E+00
    -12.959  0.0000E+00  0.0000E+00
    -12.949  0.0000E+00  0.0000E+00
    -12.939  0.0000E+00  0.0000E+00
    -12.929  0.0000E+00  0.0000E+00
    -12.919  0.0000E+00  0.0000E+00
    -12.909  0.0000E+00  0.0000E+00
    -12.899  0.0000E+00  0.0000E+00
    -12.889  0.0000E+00  0.0000E+00
    -12.879  0.0000E+00  0.0000E+00
    -12.869  0.0000E+00  0.0000E+00
    -12.859  0.0000E+00  0.0000E+00
    -12.849  0.0000E+00  0.0000E+00
    -12.839  0.0000E+00  0.0000E+00
    -12.829  0.0000E+00  0.0000E+00
    -12.819  0.0000E+00  0.0000E+00
    -12.809  0.0000E+00  0.0000E+00
    -12.799  0.0000E+00  0.0000E+00
    -12.789  0.0000E+00  0.0000E+00
    -12.779  0.0000E+00  0.0000E+00
    -12.769  0.0000E+00  0.0000E+00
    -12.759  0.0000E+00  0.0000E+00
    -12.749  0.0000E+00  0.0000E+00
    -12.739  0.0000E+00  0.0000E+00
    -12.729  0.0000E+00  0.0000E+00
    -12.719  0.0000E+00  0.0000E+00
    -12.709  0.0000E+00  0.0000E+00
    -12.699  0.0000E+00  0.0000E+00
    -12.689  0.0000E+00  0.0000E+00
    -12.679  0.0000E+00  0.0000E+00
    -12.669  0.0000E+00  0.0000E+00
    -12.659  0.0000E+00  0.0000E+00
    -12.649  0.0000E+00  0.0000E+00
    -12.639  0.0000E+00  0.0000E+00
    -12.629  0.0000E+00  0.0000E+00
    -12.619  0.0000E+00  0.0000E+00
    -12.609  0.0000E+00  0.0000E+00
    -12.599  0.0000E+00  0.0000E+00
    -12.589  0.0000E+00  0.0000E+00
    -12.579  0.0000E+00  0.0000E+00
    -12.569  0.0000E+00  0.0000E+00
    -12.559  0.0000E+00  0.0000E+00
    -12.549  0.0000E+00  0.0000E+00
    -12.539  0.0000E+00  0.0000E+00
    -12.529  0.0000E+00  0.0000E+00
    -12.519  0.0000E+00  0.0000E+00
    -12.509  0.0000E+00  0.0000E+00
    -12.499  0.0000E+00  0.0000E+00
    -12.489  0.0000E+00  0.0000E+00
    -12.479  0.0000E+00  0.0000E+00
    -12.469  0.0000E+00  0.0000E+00
    -12.459  0.0000E+00  0.0000E+00
    -12.449  0.0000E+00  0.0000E+00
    -12.439  0.0000E+00  0.0000E+00
    -12.429  0.0000E+00  0.0000E+00
    -12.419  0.0000E+00  0.0000E+00
    -12.409  0.0000E+00  0.0000E+00
    -12.399  0.0000E+00  0.0000E+00
    -12.389  0.0000E+00  0.0000E+00
    -12.379  0.0000E+00  0.0000E+00
    -12.369  0.0000E+00  0.0000E+00
    -12.359  0.0000E+00  0.0000E+00
    -12.349  0.0000E+00  0.0000E+00
    -12.339  0.0000E+00  0.0000E+00
    -12.329  0.0000E+00  0.0000E+00
    -12.319  0.0000E+00  0.0000E+00
    -12.309  0.0000E+00  0.0000E+00
    -12.299  0.0000E+00  0.0000E+00
    -12.289  0.0000E+00  0.0000E+00
    -12.279  0.0000E+00  0.0000E+00
    -12.269  0.0000E+00  0.0000E+00
    -12.259  0.0000E+00  0.0000E+00
    -12.249  0.0000E+00  0.0000E+00
    -12.239  0.0000E+00  0.0000E+00
    -12.229  0.0000E+00  0.0000E+00
    -12.219  0.0000E+00  0.0000E+00
    -12.209  0.0000E+00  0.0000E+00
    -12.199  0.0000E+00  0.0000E+00
    -12.189  0.0000E+00  0.0000E+00
    -12.179  0.0000E+00  0.0000E+00
    -12.169  0.0000E+00  0.0000E+00
    -12.159  0.0000E+00  0.0000E+00
    -12.149  0.0000E+00  0.0000E+00
    -12.139  0.0000E+00  0.0000E+00
    -12.129  0.0000E+00  0.0000E+00
    -12.119  0.0000E+00  0.0000E+00
    -12.109  0.0000E+00  0.0000E+00
    -12.099  0.0000E+00  0.0000E+00
    -12.089  0.0000E+00  0.0000E+00
    -12.079  0.0000E+00  0.0000E+00
    -12.069  0.0000E+00  0.0000E+00
    -12.059  0.0000E+00  0.0000E+00
    -12.049  0.0000E+00  0.0000E+00
    -12.039  0.0000E+00  0.0000E+00
    -12.029  0.0000E+00  0.0000E+00
    -12.019  0.0000E+00  0.0000E+00
    -12.009  0.0000E+00  0.0000E+00
    -11.999  0.0000E+00  0.0000E+00
    -11.989  0.0000E+00  0.0000E+00
    -11.979  0.0000E+00  0.0000E+00
    -11.969  0.0000E+00  0.0000E+00
    -11.959  0.0000E+00  0.0000E+00
    -11.949  0.0000E+00  0.0000E+00
    -11.939  0.0000E+00  0.0000E+00
    -11.929  0.0000E+00  0.0000E+00
    -11.919  0.0000E+00  0.0000E+00
    -11.909  0.0000E+00  0.0000E+00
    -11.899  0.0000E+00  0.0000E+00
    -11.889  0.0000E+00  0.0000E+00
    -11.879  0.0000E+00  0.0000E+00
    -11.869  0.0000E+00  0.0000E+00
    -11.859  0.0000E+00  0.0000E+00
    -11.849  0.0000E+00  0.0000E+00
    -11.839  0.0000E+00  0.0000E+00
    -11.829  0.0000E+00  0.0000E+00
    -11.819  0.0000E+00  0.0000E+00
    -11.809  0.0000E+00  0.0000E+00
    -11.799  0.0000E+00  0.0000E+00
    -11.789  0.0000E+00  0.0000E+00
    -11.779  0.0000E+00  0.0000E+00
    -11.769  0.0000E+00  0.0000E+00
    -11.759  0.0000E+00  0.0000E+00
    -11.749  0.0000E+00  0.0000E+00
    -11.739  0.0000E+00  0.0000E+00
    -11.729  0.0000E+00  0.0000E+00
    -11.719  0.0000E+00  0.0000E+00
    -11.709  0.0000E+00  0.0000E+00
    -11.699  0.0000E+00  0.0000E+00
    -11.689  0.0000E+00  0.0000E+00
    -11.679  0.0000E+00  0.0000E+00
    -11.669  0.0000E+00  0.0000E+00
    -11.659  0.0000E+00  0.0000E+00
    -11.649  0.0000E+00  0.0000E+00
    -11.639  0.0000E+00  0.0000E+00
    -11.629  0.0000E+00  0.0000E+00
    -11.619  0.0000E+00  0.0000E+00
    -11.609  0.0000E+00  0.0000E+00
    -11.599  0.0000E+00  0.0000E+00
    -11.589  0.0000E+00  0.0000E+00
    -11.579  0.0000E+00  0.0000E+00
    -11.569  0.0000E+00  0.0000E+00
    -11.559  0.0000E+00  0.0000E+00
    -11.549  0.0000E+00  0.0000E+00
    -11.539  0.0000E+00  0.0000E+00
    -11.529  0.0000E+00  0.0000E+00
    -11.519  0.0000E+00  0.0000E+00
    -11.509  0.0000E+00  0.0000E+00
    -11.499  0.0000E+00  0.0000E+00
    -11.489  0.0000E+00  0.0000E+00
    -11.479  0.0000E+00  0.0000E+00
    -11.469  0.0000E+00  0.0000E+00
    -11.459  0.0000E+00  0.0000E+00
    -11.449  0.0000E+00  0.0000E+00
    -11.439  0.0000E+00  0.0000E+00
    -11.429  0.0000E+00  0.0000E+00
    -11.419  0.0000E+00  0.0000E+00
    -11.409  0.0000E+00  0.0000E+00
    -11.399  0.0000E+00  0.0000E+00
    -11.389  0.0000E+00  0.0000E+00
    -11.379  0.0000E+00  0.0000E+00
    -11.369  0.0000E+00  0.0000E+00
    -11.359  0.0000E+00  0.0000E+00
    -11.349  0.0000E+00  0.0000E+00
    -11.339  0.0000E+00  0.0000E+00
    -11.329  0.0000E+00  0.0000E+00
    -11.319  0.0000E+00  0.0000E+00
    -11.309  0.0000E+00  0.0000E+00
    -11.299  0.0000E+00  0.0000E+00
    -11.289  0.0000E+00  0.0000E+00
    -11.279  0.0000E+00  0.0000E+00
    -11.269  0.0000E+00  0.0000E+00
    -11.259  0.0000E+00  0.0000E+00
    -11.249  0.0000E+00  0.0000E+00
    -11.239  0.0000E+00  0.0000E+00
    -11.229  0.0000E+00  0.0000E+00
    -11.219  0.0000E+00  0.0000E+00
    -11.209  0.0000E+00  0.0000E+00
    -11.199  0.0000E+00  0.0000E+00
    -11.189  0.0000E+00  0.0000E+00
    -11.179  0.0000E+00  0.0000E+00
    -11.169  0.0000E+00  0.0000E+00
    -11.159  0.0000E+00  0.0000E+00
    -11.149  0.0000E+00  0.0000E+00
    -11.139  0.0000E+00  0.0000E+00
    -11.129  0.0000E+00  0.0000E+00
    -11.119  0.0000E+00  0.0000E+00
    -11.109  0.0000E+00  0.0000E+00
    -11.099  0.0000E+00  0.0000E+00
    -11.089  0.0000E+00  0.0000E+00
    -11.079  0.0000E+00  0.0000E+00
    -11.069  0.0000E+00  0.0000E+00
    -11.059  0.0000E+00  0.0000E+00
    -11.049  0.0000E+00  0.0000E+00
    -11.039  0.0000E+00  0.0000E+00
    -11.029  0.0000E+00  0.0000E+00
    -11.019  0.0000E+00  0.0000E+00
    -11.009  0.0000E+00  0.0000E+00
    -10.999  0.0000E+00  0.0000E+00
    -10.989  0.0000E+00  0.0000E+00
    -10.979  0.0000E+00  0.0000E+00
    -10.969  0.0000E+00  0.0000E+00
    -10.959  0.0000E+00  0.0000E+00
    -10.949  0.0000E+00  0.0000E+00
    -10.939  0.0000E+00  0.0000E+00
    -10.929  0.0000E+00  0.0000E+00
    -10.919  0.0000E+00  0.0000E+00
    -10.909  0.0000E+00  0.0000E+00
    -10.899  0.0000E+00  0.0000E+00
    -10.889  0.0000E+00  0.0000E+00
    -10.879  0.0000E+00  0.0000E+00
    -10.869  0.0000E+00  0.0000E+00
    -10.859  0.0000E+00  0.0000E+00
    -10.849  0.0000E+00  0.0000E+00
    -10.839  0.0000E+00  0.0000E+00
    -10.829  0.0000E+00  0.0000E+00
    -10.819  0.0000E+00  0.0000E+00
    -10.809  0.0000E+00  0.0000E+00
    -10.799  0.0000E+00  0.0000E+00
    -10.789  0.0000E+00  0.0000E+00
    -10.779  0.0000E+00  0.0000E+00
    -10.769  0.0000E+00  0.0000E+00
    -10.759  0.0000E+00  0.0000E+00
    -10.749  0.0000E+00  0.0000E+00
    -10.739  0.0000E+00  0.0000E+00
    -10.729  0.0000E+00  0.0000E+00
    -10.719  0.0000E+00  0.0000E+00
    -10.709  0.0000E+00  0.0000E+00
    -10.699  0.0000E+00  0.0000E+00
    -10.689  0.0000E+00  0.0000E+00
    -10.679  0.0000E+00  0.0000E+00
    -10.669  0.0000E+00  0.0000E+00
    -10.659  0.0000E+00  0.0000E+00
    -10.649  0.0000E+00  0.0000E+00
    -10.639  0.0000E+00  0.0000E+00
    -10.629  0.0000E+00  0.0000E+00
    -10.619  0.0000E+00  0.0000E+00
    -10.609  0.0000E+00  0.0000E+00
    -10.599  0.0000E+00  0.0000E+00
    -10.589  0.0000E+00  0.0000E+00
    -10.579  0.0000E+00  0.0000E+00
    -10.569  0.0000E+00  0.0000E+00
    -10.559  0.0000E+00  0.0000E+00
    -10.549  0.0000E+00  0.0000E+00
    -10.539  0.0000E+00  0.0000E+00
    -10.529  0.0000E+00  0.0000E+00
    -10.519  0.0000E+00  0.0000E+00
    -10.509  0.0000E+00  0.0000E+00
    -10.498  0.0000E+00  0.0000E+00
    -10.488  0.0000E+00  0.0000E+00
    -10.478  0.0000E+00  0.0000E+00
    -10.468  0.0000E+00  0.0000E+00
    -10.458  0.0000E+00  0.0000E+00
    -10.448  0.0000E+00  0.0000E+00
    -10.438  0.0000E+00  0.0000E+00
    -10.428  0.0000E+00  0.0000E+00
    -10.418  0.0000E+00  0.0000E+00
    -10.408  0.0000E+00  0.0000E+00
    -10.398  0.0000E+00  0.0000E+00
    -10.388  0.0000E+00  0.0000E+00
    -10.378  0.0000E+00  0.0000E+00
    -10.368  0.0000E+00  0.0000E+00
    -10.358  0.0000E+00  0.0000E+00
    -10.348  0.0000E+00  0.0000E+00
    -10.338  0.0000E+00  0.0000E+00
    -10.328  0.0000E+00  0.0000E+00
    -10.318  0.0000E+00  0.0000E+00
    -10.308  0.0000E+00  0.0000E+00
    -10.298  0.0000E+00  0.0000E+00
    -10.288  0.0000E+00  0.0000E+00
    -10.278  0.0000E+00  0.0000E+00
    -10.268  0.0000E+00  0.0000E+00
    -10.258  0.0000E+00  0.0000E+00
    -10.248  0.0000E+00  0.0000E+00
    -10.238  0.0000E+00  0.0000E+00
    -10.228  0.0000E+00  0.0000E+00
    -10.218  0.0000E+00  0.0000E+00
    -10.208  0.0000E+00  0.0000E+00
    -10.198  0.0000E+00  0.0000E+00
    -10.188  0.0000E+00  0.0000E+00
    -10.178  0.0000E+00  0.0000E+00
    -10.168  0.0000E+00  0.0000E+00
    -10.158  0.0000E+00  0.0000E+00
    -10.148  0.0000E+00  0.0000E+00
    -10.138  0.0000E+00  0.0000E+00
    -10.128  0.0000E+00  0.0000E+00
    -10.118  0.0000E+00  0.0000E+00
    -10.108  0.0000E+00  0.0000E+00
    -10.098  0.0000E+00  0.0000E+00
    -10.088  0.0000E+00  0.0000E+00
    -10.078  0.0000E+00  0.0000E+00
    -10.068  0.0000E+00  0.0000E+00
    -10.058  0.0000E+00  0.0000E+00
    -10.048  0.0000E+00  0.0000E+00
    -10.038  0.0000E+00  0.0000E+00
    -10.028  0.0000E+00  0.0000E+00
    -10.018  0.0000E+00  0.0000E+00
    -10.008  0.0000E+00  0.0000E+00
     -9.998  0.0000E+00  0.0000E+00
     -9.988  0.0000E+00  0.0000E+00
     -9.978  0.0000E+00  0.0000E+00
     -9.968  0.0000E+00  0.0000E+00
     -9.958  0.0000E+00  0.0000E+00
     -9.948  0.0000E+00  0.0000E+00
     -9.938  0.0000E+00  0.0000E+00
     -9.928  0.0000E+00  0.0000E+00
     -9.918  0.0000E+00  0.0000E+00
     -9.908  0.0000E+00  0.0000E+00
     -9.898  0.0000E+00  0.0000E+00
     -9.888  0.0000E+00  0.0000E+00
     -9.878  0.0000E+00  0.0000E+00
     -9.868  0.0000E+00  0.0000E+00
     -9.858  0.0000E+00  0.0000E+00
     -9.848  0.0000E+00  0.0000E+00
     -9.838  0.0000E+00  0.0000E+00
     -9.828  0.0000E+00  0.0000E+00
     -9.818  0.0000E+00  0.0000E+00
     -9.808  0.0000E+00  0.0000E+00
     -9.798  0.0000E+00  0.0000E+00
     -9.788  0.0000E+00  0.0000E+00
     -9.778  0.0000E+00  0.0000E+00
     -9.768  0.0000E+00  0.0000E+00
     -9.758  0.0000E+00  0.0000E+00
     -9.748  0.0000E+00  0.0000E+00
     -9.738  0.0000E+00  0.0000E+00
     -9.728  0.0000E+00  0.0000E+00
     -9.718  0.0000E+00  0.0000E+00
     -9.708  0.0000E+00  0.0000E+00
     -9.698  0.0000E+00  0.0000E+00
     -9.688  0.0000E+00  0.0000E+00
     -9.678  0.0000E+00  0.0000E+00
     -9.668  0.0000E+00  0.0000E+00
     -9.658  0.0000E+00  0.0000E+00
     -9.648  0.0000E+00  0.0000E+00
     -9.638  0.0000E+00  0.0000E+00
     -9.628  0.0000E+00  0.0000E+00
     -9.618  0.0000E+00  0.0000E+00
     -9.608  0.0000E+00  0.0000E+00
     -9.598  0.0000E+00  0.0000E+00
     -9.588  0.0000E+00  0.0000E+00
     -9.578  0.0000E+00  0.0000E+00
     -9.568  0.0000E+00  0.0000E+00
     -9.558  0.0000E+00  0.0000E+00
     -9.548  0.0000E+00  0.0000E+00
     -9.538  0.0000E+00  0.0000E+00
     -9.528  0.0000E+00  0.0000E+00
     -9.518  0.0000E+00  0.0000E+00
     -9.508  0.0000E+00  0.0000E+00
     -9.498  0.0000E+00  0.0000E+00
     -9.488  0.0000E+00  0.0000E+00
     -9.478  0.0000E+00  0.0000E+00
     -9.468  0.0000E+00  0.0000E+00
     -9.458  0.0000E+00  0.0000E+00
     -9.448  0.0000E+00  0.0000E+00
     -9.438  0.0000E+00  0.0000E+00
     -9.428  0.0000E+00  0.0000E+00
     -9.418  0.0000E+00  0.0000E+00
     -9.408  0.0000E+00  0.0000E+00
     -9.398  0.0000E+00  0.0000E+00
     -9.388  0.0000E+00  0.0000E+00
     -9.378  0.0000E+00  0.0000E+00
     -9.368  0.0000E+00  0.0000E+00
     -9.358  0.0000E+00  0.0000E+00
     -9.348  0.0000E+00  0.0000E+00
     -9.338  0.0000E+00  0.0000E+00
     -9.328  0.0000E+00  0.0000E+00
     -9.318  0.0000E+00  0.0000E+00
     -9.308  0.0000E+00  0.0000E+00
     -9.298  0.0000E+00  0.0000E+00
     -9.288  0.0000E+00  0.0000E+00
     -9.278  0.0000E+00  0.0000E+00
     -9.268  0.0000E+00  0.0000E+00
     -9.258  0.0000E+00  0.0000E+00
     -9.248  0.0000E+00  0.0000E+00
     -9.238  0.0000E+00  0.0000E+00
     -9.228  0.0000E+00  0.0000E+00
     -9.218  0.0000E+00  0.0000E+00
     -9.208  0.0000E+00  0.0000E+00
     -9.198  0.0000E+00  0.0000E+00
     -9.188  0.0000E+00  0.0000E+00
     -9.178  0.0000E+00  0.0000E+00
     -9.168  0.0000E+00  0.0000E+00
     -9.158  0.0000E+00  0.0000E+00
     -9.148  0.0000E+00  0.0000E+00
     -9.138  0.0000E+00  0.0000E+00
     -9.128  0.0000E+00  0.0000E+00
     -9.118  0.0000E+00  0.0000E+00
     -9.108  0.0000E+00  0.0000E+00
     -9.098  0.0000E+00  0.0000E+00
     -9.088  0.0000E+00  0.0000E+00
     -9.078  0.0000E+00  0.0000E+00
     -9.068  0.0000E+00  0.0000E+00
     -9.058  0.0000E+00  0.0000E+00
     -9.048  0.0000E+00  0.0000E+00
     -9.038  0.0000E+00  0.0000E+00
     -9.028  0.0000E+00  0.0000E+00
     -9.018  0.0000E+00  0.0000E+00
     -9.008  0.0000E+00  0.0000E+00
     -8.998  0.0000E+00  0.0000E+00
     -8.988  0.0000E+00  0.0000E+00
     -8.978  0.0000E+00  0.0000E+00
     -8.968  0.0000E+00  0.0000E+00
     -8.958  0.0000E+00  0.0000E+00
     -8.948  0.0000E+00  0.0000E+00
     -8.938  0.0000E+00  0.0000E+00
     -8.928  0.0000E+00  0.0000E+00
     -8.918  0.0000E+00  0.0000E+00
     -8.908  0.0000E+00  0.0000E+00
     -8.898  0.0000E+00  0.0000E+00
     -8.888  0.0000E+00  0.0000E+00
     -8.878  0.0000E+00  0.0000E+00
     -8.868  0.0000E+00  0.0000E+00
     -8.858  0.0000E+00  0.0000E+00
     -8.848  0.0000E+00  0.0000E+00
     -8.838  0.0000E+00  0.0000E+00
     -8.828  0.0000E+00  0.0000E+00
     -8.818  0.0000E+00  0.0000E+00
     -8.808  0.0000E+00  0.0000E+00
     -8.798  0.0000E+00  0.0000E+00
     -8.788  0.0000E+00  0.0000E+00
     -8.778  0.0000E+00  0.0000E+00
     -8.768  0.0000E+00  0.0000E+00
     -8.758  0.0000E+00  0.0000E+00
     -8.748  0.0000E+00  0.0000E+00
     -8.738  0.0000E+00  0.0000E+00
     -8.728  0.0000E+00  0.0000E+00
     -8.718  0.0000E+00  0.0000E+00
     -8.708  0.0000E+00  0.0000E+00
     -8.698  0.0000E+00  0.0000E+00
     -8.688  0.0000E+00  0.0000E+00
     -8.678  0.0000E+00  0.0000E+00
     -8.668  0.0000E+00  0.0000E+00
     -8.658  0.0000E+00  0.0000E+00
     -8.648  0.0000E+00  0.0000E+00
     -8.638  0.0000E+00  0.0000E+00
     -8.628  0.0000E+00  0.0000E+00
     -8.618  0.0000E+00  0.0000E+00
     -8.608  0.0000E+00  0.0000E+00
     -8.598  0.0000E+00  0.0000E+00
     -8.588  0.0000E+00  0.0000E+00
     -8.578  0.0000E+00  0.0000E+00
     -8.568  0.0000E+00  0.0000E+00
     -8.558  0.0000E+00  0.0000E+00
     -8.548  0.0000E+00  0.0000E+00
     -8.538  0.0000E+00  0.0000E+00
     -8.528  0.0000E+00  0.0000E+00
     -8.518  0.0000E+00  0.0000E+00
     -8.508  0.0000E+00  0.0000E+00
     -8.498  0.0000E+00  0.0000E+00
     -8.488  0.0000E+00  0.0000E+00
     -8.478  0.0000E+00  0.0000E+00
     -8.468  0.0000E+00  0.0000E+00
     -8.458  0.0000E+00  0.0000E+00
     -8.448  0.0000E+00  0.0000E+00
     -8.438  0.0000E+00  0.0000E+00
     -8.428  0.0000E+00  0.0000E+00
     -8.418  0.0000E+00  0.0000E+00
     -8.408  0.0000E+00  0.0000E+00
     -8.398  0.0000E+00  0.0000E+00
     -8.388  0.0000E+00  0.0000E+00
     -8.378  0.0000E+00  0.0000E+00
     -8.368  0.0000E+00  0.0000E+00
     -8.358  0.0000E+00  0.0000E+00
     -8.348  0.0000E+00  0.0000E+00
     -8.338  0.0000E+00  0.0000E+00
     -8.328  0.0000E+00  0.0000E+00
     -8.318  0.0000E+00  0.0000E+00
     -8.308  0.0000E+00  0.0000E+00
     -8.298  0.0000E+00  0.0000E+00
     -8.288  0.0000E+00  0.0000E+00
     -8.278  0.0000E+00  0.0000E+00
     -8.268  0.0000E+00  0.0000E+00
     -8.258  0.0000E+00  0.0000E+00
     -8.248  0.0000E+00  0.0000E+00
     -8.238  0.0000E+00  0.0000E+00
     -8.228  0.0000E+00  0.0000E+00
     -8.218  0.0000E+00  0.0000E+00
     -8.208  0.0000E+00  0.0000E+00
     -8.198  0.0000E+00  0.0000E+00
     -8.188  0.0000E+00  0.0000E+00
     -8.178  0.0000E+00  0.0000E+00
     -8.168  0.0000E+00  0.0000E+00
     -8.158  0.0000E+00  0.0000E+00
     -8.148  0.0000E+00  0.0000E+00
     -8.138  0.0000E+00  0.0000E+00
     -8.128  0.0000E+00  0.0000E+00
     -8.118  0.0000E+00  0.0000E+00
     -8.108  0.0000E+00  0.0000E+00
     -8.098  0.0000E+00  0.0000E+00
     -8.088  0.0000E+00  0.0000E+00
     -8.078  0.0000E+00  0.0000E+00
     -8.068  0.0000E+00  0.0000E+00
     -8.058  0.0000E+00  0.0000E+00
     -8.048  0.0000E+00  0.0000E+00
     -8.038  0.0000E+00  0.0000E+00
     -8.028  0.0000E+00  0.0000E+00
     -8.018  0.0000E+00  0.0000E+00
     -8.008  0.0000E+00  0.0000E+00
     -7.998  0.0000E+00  0.0000E+00
     -7.988  0.0000E+00  0.0000E+00
     -7.978  0.0000E+00  0.0000E+00
     -7.968  0.0000E+00  0.0000E+00
     -7.958  0.0000E+00  0.0000E+00
     -7.948  0.0000E+00  0.0000E+00
     -7.938  0.0000E+00  0.0000E+00
     -7.928  0.0000E+00  0.0000E+00
     -7.918  0.0000E+00  0.0000E+00
     -7.908  0.0000E+00  0.0000E+00
     -7.898  0.0000E+00  0.0000E+00
     -7.888  0.0000E+00  0.0000E+00
     -7.878  0.0000E+00  0.0000E+00
     -7.868  0.0000E+00  0.0000E+00
     -7.858  0.0000E+00  0.0000E+00
     -7.848  0.0000E+00  0.0000E+00
     -7.838  0.7847E-03  0.1594E-05
     -7.828  0.5476E-02  0.2938E-04
     -7.818  0.1440E-01  0.1253E-03
     -7.808  0.2755E-01  0.3315E-03
     -7.798  0.4493E-01  0.6905E-03
     -7.788  0.6654E-01  0.1244E-02
     -7.778  0.9237E-01  0.2036E-02
     -7.768  0.1224E+00  0.3107E-02
     -7.758  0.1567E+00  0.4500E-02
     -7.748  0.1953E+00  0.6257E-02
     -7.738  0.2380E+00  0.8420E-02
     -7.728  0.2850E+00  0.1103E-01
     -7.718  0.3362E+00  0.1414E-01
     -7.708  0.3764E+00  0.1772E-01
     -7.698  0.4064E+00  0.2164E-01
     -7.688  0.4338E+00  0.2585E-01
     -7.678  0.4586E+00  0.3031E-01
     -7.668  0.4809E+00  0.3501E-01
     -7.658  0.5007E+00  0.3992E-01
     -7.648  0.5181E+00  0.4502E-01
     -7.638  0.5329E+00  0.5028E-01
     -7.628  0.5453E+00  0.5568E-01
     -7.618  0.5552E+00  0.6118E-01
     -7.608  0.5626E+00  0.6678E-01
     -7.598  0.5675E+00  0.7243E-01
     -7.588  0.5699E+00  0.7812E-01
     -7.578  0.5703E+00  0.8382E-01
     -7.568  0.5869E+00  0.8961E-01
     -7.558  0.6042E+00  0.9557E-01
     -7.548  0.6218E+00  0.1017E+00
     -7.538  0.6395E+00  0.1080E+00
     -7.528  0.6574E+00  0.1145E+00
     -7.518  0.6755E+00  0.1212E+00
     -7.508  0.6937E+00  0.1280E+00
     -7.497  0.7122E+00  0.1350E+00
     -7.487  0.7308E+00  0.1423E+00
     -7.477  0.7497E+00  0.1497E+00
     -7.467  0.7687E+00  0.1573E+00
     -7.457  0.7874E+00  0.1650E+00
     -7.447  0.8057E+00  0.1730E+00
     -7.437  0.8237E+00  0.1812E+00
     -7.427  0.8413E+00  0.1895E+00
     -7.417  0.8585E+00  0.1980E+00
     -7.407  0.8754E+00  0.2067E+00
     -7.397  0.8919E+00  0.2155E+00
     -7.387  0.9080E+00  0.2245E+00
     -7.377  0.9238E+00  0.2337E+00
     -7.367  0.9392E+00  0.2430E+00
     -7.357  0.9543E+00  0.2525E+00
     -7.347  0.9693E+00  0.2621E+00
     -7.337  0.9845E+00  0.2718E+00
     -7.327  0.1000E+01  0.2818E+00
     -7.317  0.1017E+01  0.2919E+00
     -7.307  0.1034E+01  0.3021E+00
     -7.297  0.1052E+01  0.3126E+00
     -7.287  0.1076E+01  0.3232E+00
     -7.277  0.1131E+01  0.3342E+00
     -7.267  0.1185E+01  0.3458E+00
     -7.257  0.1237E+01  0.3579E+00
     -7.247  0.1289E+01  0.3705E+00
     -7.237  0.1339E+01  0.3837E+00
     -7.227  0.1387E+01  0.3973E+00
     -7.217  0.1434E+01  0.4114E+00
     -7.207  0.1479E+01  0.4260E+00
     -7.197  0.1522E+01  0.4410E+00
     -7.187  0.1563E+01  0.4565E+00
     -7.177  0.1603E+01  0.4723E+00
     -7.167  0.1444E+01  0.4875E+00
     -7.157  0.1460E+01  0.5020E+00
     -7.147  0.1476E+01  0.5167E+00
     -7.137  0.1492E+01  0.5315E+00
     -7.127  0.1507E+01  0.5465E+00
     -7.117  0.1523E+01  0.5617E+00
     -7.107  0.1539E+01  0.5770E+00
     -7.097  0.1554E+01  0.5925E+00
     -7.087  0.1570E+01  0.6081E+00
     -7.077  0.1585E+01  0.6239E+00
     -7.067  0.1601E+01  0.6398E+00
     -7.057  0.1625E+01  0.6560E+00
     -7.047  0.1651E+01  0.6723E+00
     -7.037  0.1680E+01  0.6890E+00
     -7.027  0.1712E+01  0.7060E+00
     -7.017  0.1746E+01  0.7233E+00
     -7.007  0.1784E+01  0.7409E+00
     -6.997  0.1824E+01  0.7590E+00
     -6.987  0.1867E+01  0.7774E+00
     -6.977  0.1912E+01  0.7963E+00
     -6.967  0.1961E+01  0.8157E+00
     -6.957  0.2016E+01  0.8356E+00
     -6.947  0.2074E+01  0.8560E+00
     -6.937  0.2189E+01  0.8773E+00
     -6.927  0.2297E+01  0.8998E+00
     -6.917  0.2393E+01  0.9232E+00
     -6.907  0.2477E+01  0.9476E+00
     -6.897  0.2549E+01  0.9727E+00
     -6.887  0.2610E+01  0.9986E+00
     -6.877  0.2658E+01  0.1025E+01
     -6.867  0.2694E+01  0.1052E+01
     -6.857  0.2719E+01  0.1079E+01
     -6.847  0.2730E+01  0.1106E+01
     -6.837  0.2724E+01  0.1133E+01
     -6.827  0.2700E+01  0.1160E+01
     -6.817  0.2660E+01  0.1187E+01
     -6.807  0.2606E+01  0.1214E+01
     -6.797  0.2574E+01  0.1240E+01
     -6.787  0.2576E+01  0.1265E+01
     -6.777  0.2612E+01  0.1291E+01
     -6.767  0.2682E+01  0.1318E+01
     -6.757  0.2842E+01  0.1345E+01
     -6.747  0.2748E+01  0.1373E+01