<?xml version="1.0" encoding="ISO-8859-1"?>
<modeling>
 <generator>
  <i name="program" type="string">vasp </i>
  <i name="version" type="string">5.4.4.18Apr17-6-g9f103f2a35  </i>
  <i name="subversion" type="string">(build May 21 2018 15:16:00) complex            parallel </i>
  <i name="platform" type="string">GUN_wannier90_optcell </i>
  <i name="date" type="string">2019 03 24 </i>
  <i name="time" type="string">21:33:00 </i>
 </generator>
 <incar>
  <i type="string" name="SYSTEM"> Te-a</i>
  <i type="string" name="PREC">a</i>
  <i type="string" name="ALGO">     N ! Normal     algorithm</i>
  <i type="logical" name="LDIAG"> T  </i>
  <i type="int" name="NELM">  2000</i>
  <i type="int" name="NELMIN">     5</i>
  <i type="int" name="IBRION">    -1</i>
  <i name="EDIFF">      0.00000001</i>
  <i name="EDIFFG">     -0.00100000</i>
  <i type="int" name="NSW">     0</i>
  <i type="int" name="ISYM">    -1</i>
  <i type="int" name="NBLOCK">     1</i>
  <i type="int" name="KBLOCK">     5</i>
  <i name="ENCUT">    500.00000000</i>
  <i name="POTIM">      0.50000000</i>
  <i type="int" name="NEDOS">  3000</i>
  <i type="logical" name="LREAL"> F  </i>
  <i name="EMIN">    -15.00000000</i>
  <i name="EMAX">     15.00000000</i>
  <i type="int" name="ISMEAR">    -5</i>
  <i type="int" name="NWRITE">     1</i>
  <i type="logical" name="LCORR"> T  </i>
  <i type="logical" name="LWAVE"> T  </i>
  <i type="logical" name="LCHARG"> T  </i>
  <i type="int" name="LORBIT">    11</i>
  <i type="logical" name="LASPH"> T  </i>
  <i type="logical" name="GGA_COMPAT"> F  </i>
  <v type="int" name="KPOINT_BSE">    -1     0     0     0</v>
  <i type="int" name="NELM">  2000</i>
  <i type="logical" name="LASPH"> T  </i>
 </incar>
 <structure name="primitive_cell" >
  <crystal>
   <varray name="basis" >
    <v>       2.25932030      -3.91325756      -0.00000000 </v>
    <v>       2.25932030       3.91325756       0.00000000 </v>
    <v>      -0.00000000       0.00000000       5.95319668 </v>
   </varray>
   <i name="volume">    105.26802254 </i>
   <varray name="rec_basis" >
    <v>       0.22130550      -0.12777079       0.00000000 </v>
    <v>       0.22130550       0.12777079       0.00000000 </v>
    <v>       0.00000000      -0.00000000       0.16797698 </v>
   </varray>
  </crystal>
  <varray name="positions" >
   <v>       0.26862376       0.00000000       0.16666667 </v>
   <v>      -0.26862376      -0.26862376      -0.50000000 </v>
   <v>       0.00000000       0.26862376      -0.16666667 </v>
  </varray>
 </structure>
 <varray name="primitive_index" >
  <v type="int" >        1 </v>
  <v type="int" >        3 </v>
  <v type="int" >        2 </v>
 </varray>
 <kpoints>
  <generation param="Gamma">
   <v type="int" name="divisions">       7        7        5 </v>
   <v name="usershift">      0.00000000       0.00000000       0.00000000 </v>
   <v name="genvec1">      0.14285714       0.00000000       0.00000000 </v>
   <v name="genvec2">      0.00000000       0.14285714       0.00000000 </v>
   <v name="genvec3">      0.00000000       0.00000000       0.20000000 </v>
   <v name="shift">      0.00000000       0.00000000       0.00000000 </v>
  </generation>
  <varray name="kpointlist" >
   <v>       0.00000000       0.00000000       0.00000000 </v>
   <v>       0.14285714       0.00000000       0.00000000 </v>
   <v>       0.28571429       0.00000000       0.00000000 </v>
   <v>       0.42857143       0.00000000       0.00000000 </v>
   <v>      -0.42857143       0.00000000       0.00000000 </v>
   <v>      -0.28571429       0.00000000       0.00000000 </v>
   <v>      -0.14285714       0.00000000       0.00000000 </v>
   <v>       0.00000000       0.14285714       0.00000000 </v>
   <v>       0.14285714       0.14285714       0.00000000 </v>
   <v>       0.28571429       0.14285714       0.00000000 </v>
   <v>       0.42857143       0.14285714       0.00000000 </v>
   <v>      -0.42857143       0.14285714       0.00000000 </v>
   <v>      -0.28571429       0.14285714       0.00000000 </v>
   <v>      -0.14285714       0.14285714       0.00000000 </v>
   <v>       0.00000000       0.28571429       0.00000000 </v>
   <v>       0.14285714       0.28571429       0.00000000 </v>
   <v>       0.28571429       0.28571429       0.00000000 </v>
   <v>       0.42857143       0.28571429       0.00000000 </v>
   <v>      -0.42857143       0.28571429       0.00000000 </v>
   <v>      -0.28571429       0.28571429       0.00000000 </v>
   <v>      -0.14285714       0.28571429       0.00000000 </v>
   <v>       0.00000000       0.42857143       0.00000000 </v>
   <v>       0.14285714       0.42857143       0.00000000 </v>
   <v>       0.28571429       0.42857143       0.00000000 </v>
   <v>       0.42857143       0.42857143       0.00000000 </v>
   <v>      -0.42857143       0.42857143       0.00000000 </v>
   <v>      -0.28571429       0.42857143       0.00000000 </v>
   <v>      -0.14285714       0.42857143       0.00000000 </v>
   <v>       0.00000000      -0.42857143       0.00000000 </v>
   <v>       0.14285714      -0.42857143       0.00000000 </v>
   <v>       0.28571429      -0.42857143       0.00000000 </v>
   <v>       0.42857143      -0.42857143       0.00000000 </v>
   <v>      -0.42857143      -0.42857143       0.00000000 </v>
   <v>      -0.28571429      -0.42857143       0.00000000 </v>
   <v>      -0.14285714      -0.42857143       0.00000000 </v>
   <v>       0.00000000      -0.28571429       0.00000000 </v>
   <v>       0.14285714      -0.28571429       0.00000000 </v>
   <v>       0.28571429      -0.28571429       0.00000000 </v>
   <v>       0.42857143      -0.28571429       0.00000000 </v>
   <v>      -0.42857143      -0.28571429       0.00000000 </v>
   <v>      -0.28571429      -0.28571429       0.00000000 </v>
   <v>      -0.14285714      -0.28571429       0.00000000 </v>
   <v>       0.00000000      -0.14285714       0.00000000 </v>
   <v>       0.14285714      -0.14285714       0.00000000 </v>
   <v>       0.28571429      -0.14285714       0.00000000 </v>
   <v>       0.42857143      -0.14285714       0.00000000 </v>
   <v>      -0.42857143      -0.14285714       0.00000000 </v>
   <v>      -0.28571429      -0.14285714       0.00000000 </v>
   <v>      -0.14285714      -0.14285714       0.00000000 </v>
   <v>       0.00000000       0.00000000       0.20000000 </v>
   <v>       0.14285714       0.00000000       0.20000000 </v>
   <v>       0.28571429       0.00000000       0.20000000 </v>
   <v>       0.42857143       0.00000000       0.20000000 </v>
   <v>      -0.42857143       0.00000000       0.20000000 </v>
   <v>      -0.28571429       0.00000000       0.20000000 </v>
   <v>      -0.14285714       0.00000000       0.20000000 </v>
   <v>       0.00000000       0.14285714       0.20000000 </v>
   <v>       0.14285714       0.14285714       0.20000000 </v>
   <v>       0.28571429       0.14285714       0.20000000 </v>
   <v>       0.42857143       0.14285714       0.20000000 </v>
   <v>      -0.42857143       0.14285714       0.20000000 </v>
   <v>      -0.28571429       0.14285714       0.20000000 </v>
   <v>      -0.14285714       0.14285714       0.20000000 </v>
   <v>       0.00000000       0.28571429       0.20000000 </v>
   <v>       0.14285714       0.28571429       0.20000000 </v>
   <v>       0.28571429       0.28571429       0.20000000 </v>
   <v>       0.42857143       0.28571429       0.20000000 </v>
   <v>      -0.42857143       0.28571429       0.20000000 </v>
   <v>      -0.28571429       0.28571429       0.20000000 </v>
   <v>      -0.14285714       0.28571429       0.20000000 </v>
   <v>       0.00000000       0.42857143       0.20000000 </v>
   <v>       0.14285714       0.42857143       0.20000000 </v>
   <v>       0.28571429       0.42857143       0.20000000 </v>
   <v>       0.42857143       0.42857143       0.20000000 </v>
   <v>      -0.42857143       0.42857143       0.20000000 </v>
   <v>      -0.28571429       0.42857143       0.20000000 </v>
   <v>      -0.14285714       0.42857143       0.20000000 </v>
   <v>       0.00000000      -0.42857143       0.20000000 </v>
   <v>       0.14285714      -0.42857143       0.20000000 </v>
   <v>       0.28571429      -0.42857143       0.20000000 </v>
   <v>       0.42857143      -0.42857143       0.20000000 </v>
   <v>      -0.42857143      -0.42857143       0.20000000 </v>
   <v>      -0.28571429      -0.42857143       0.20000000 </v>
   <v>      -0.14285714      -0.42857143       0.20000000 </v>
   <v>       0.00000000      -0.28571429       0.20000000 </v>
   <v>       0.14285714      -0.28571429       0.20000000 </v>
   <v>       0.28571429      -0.28571429       0.20000000 </v>
   <v>       0.42857143      -0.28571429       0.20000000 </v>
   <v>      -0.42857143      -0.28571429       0.20000000 </v>
   <v>      -0.28571429      -0.28571429       0.20000000 </v>
   <v>      -0.14285714      -0.28571429       0.20000000 </v>
   <v>       0.00000000      -0.14285714       0.20000000 </v>
   <v>       0.14285714      -0.14285714       0.20000000 </v>
   <v>       0.28571429      -0.14285714       0.20000000 </v>
   <v>       0.42857143      -0.14285714       0.20000000 </v>
   <v>      -0.42857143      -0.14285714       0.20000000 </v>
   <v>      -0.28571429      -0.14285714       0.20000000 </v>
   <v>      -0.14285714      -0.14285714       0.20000000 </v>
   <v>       0.00000000       0.00000000       0.40000000 </v>
   <v>       0.14285714       0.00000000       0.40000000 </v>
   <v>       0.28571429       0.00000000       0.40000000 </v>
   <v>       0.42857143       0.00000000       0.40000000 </v>
   <v>      -0.42857143       0.00000000       0.40000000 </v>
   <v>      -0.28571429       0.00000000       0.40000000 </v>
   <v>      -0.14285714       0.00000000       0.40000000 </v>
   <v>       0.00000000       0.14285714       0.40000000 </v>
   <v>       0.14285714       0.14285714       0.40000000 </v>
   <v>       0.28571429       0.14285714       0.40000000 </v>
   <v>       0.42857143       0.14285714       0.40000000 </v>
   <v>      -0.42857143       0.14285714       0.40000000 </v>
   <v>      -0.28571429       0.14285714       0.40000000 </v>
   <v>      -0.14285714       0.14285714       0.40000000 </v>
   <v>       0.00000000       0.28571429       0.40000000 </v>
   <v>       0.14285714       0.28571429       0.40000000 </v>
   <v>       0.28571429       0.28571429       0.40000000 </v>
   <v>       0.42857143       0.28571429       0.40000000 </v>
   <v>      -0.42857143       0.28571429       0.40000000 </v>
   <v>      -0.28571429       0.28571429       0.40000000 </v>
   <v>      -0.14285714       0.28571429       0.40000000 </v>
   <v>       0.00000000       0.42857143       0.40000000 </v>
   <v>       0.14285714       0.42857143       0.40000000 </v>
   <v>       0.28571429       0.42857143       0.40000000 </v>
   <v>       0.42857143       0.42857143       0.40000000 </v>
   <v>      -0.42857143       0.42857143       0.40000000 </v>
   <v>      -0.28571429       0.42857143       0.40000000 </v>
   <v>      -0.14285714       0.42857143       0.40000000 </v>
   <v>       0.00000000      -0.42857143       0.40000000 </v>
   <v>       0.14285714      -0.42857143       0.40000000 </v>
   <v>       0.28571429      -0.42857143       0.40000000 </v>
   <v>       0.42857143      -0.42857143       0.40000000 </v>
   <v>      -0.42857143      -0.42857143       0.40000000 </v>
   <v>      -0.28571429      -0.42857143       0.40000000 </v>
   <v>      -0.14285714      -0.42857143       0.40000000 </v>
   <v>       0.00000000      -0.28571429       0.40000000 </v>
   <v>       0.14285714      -0.28571429       0.40000000 </v>
   <v>       0.28571429      -0.28571429       0.40000000 </v>
   <v>       0.42857143      -0.28571429       0.40000000 </v>
   <v>      -0.42857143      -0.28571429       0.40000000 </v>
   <v>      -0.28571429      -0.28571429       0.40000000 </v>
   <v>      -0.14285714      -0.28571429       0.40000000 </v>
   <v>       0.00000000      -0.14285714       0.40000000 </v>
   <v>       0.14285714      -0.14285714       0.40000000 </v>
   <v>       0.28571429      -0.14285714       0.40000000 </v>
   <v>       0.42857143      -0.14285714       0.40000000 </v>
   <v>      -0.42857143      -0.14285714       0.40000000 </v>
   <v>      -0.28571429      -0.14285714       0.40000000 </v>
   <v>      -0.14285714      -0.14285714       0.40000000 </v>
   <v>       0.00000000       0.00000000      -0.40000000 </v>
   <v>       0.14285714       0.00000000      -0.40000000 </v>
   <v>       0.28571429       0.00000000      -0.40000000 </v>
   <v>       0.42857143       0.00000000      -0.40000000 </v>
   <v>      -0.42857143       0.00000000      -0.40000000 </v>
   <v>      -0.28571429       0.00000000      -0.40000000 </v>
   <v>      -0.14285714       0.00000000      -0.40000000 </v>
   <v>       0.00000000       0.14285714      -0.40000000 </v>
   <v>       0.14285714       0.14285714      -0.40000000 </v>
   <v>       0.28571429       0.14285714      -0.40000000 </v>
   <v>       0.42857143       0.14285714      -0.40000000 </v>
   <v>      -0.42857143       0.14285714      -0.40000000 </v>
   <v>      -0.28571429       0.14285714      -0.40000000 </v>
   <v>      -0.14285714       0.14285714      -0.40000000 </v>
   <v>       0.00000000       0.28571429      -0.40000000 </v>
   <v>       0.14285714       0.28571429      -0.40000000 </v>
   <v>       0.28571429       0.28571429      -0.40000000 </v>
   <v>       0.42857143       0.28571429      -0.40000000 </v>
   <v>      -0.42857143       0.28571429      -0.40000000 </v>
   <v>      -0.28571429       0.28571429      -0.40000000 </v>
   <v>      -0.14285714       0.28571429      -0.40000000 </v>
   <v>       0.00000000       0.42857143      -0.40000000 </v>
   <v>       0.14285714       0.42857143      -0.40000000 </v>
   <v>       0.28571429       0.42857143      -0.40000000 </v>
   <v>       0.42857143       0.42857143      -0.40000000 </v>
   <v>      -0.42857143       0.42857143      -0.40000000 </v>
   <v>      -0.28571429       0.42857143      -0.40000000 </v>
   <v>      -0.14285714       0.42857143      -0.40000000 </v>
   <v>       0.00000000      -0.42857143      -0.40000000 </v>
   <v>       0.14285714      -0.42857143      -0.40000000 </v>
   <v>       0.28571429      -0.42857143      -0.40000000 </v>
   <v>       0.42857143      -0.42857143      -0.40000000 </v>
   <v>      -0.42857143      -0.42857143      -0.40000000 </v>
   <v>      -0.28571429      -0.42857143      -0.40000000 </v>
   <v>      -0.14285714      -0.42857143      -0.40000000 </v>
   <v>       0.00000000      -0.28571429      -0.40000000 </v>
   <v>       0.14285714      -0.28571429      -0.40000000 </v>
   <v>       0.28571429      -0.28571429      -0.40000000 </v>
   <v>       0.42857143      -0.28571429      -0.40000000 </v>
   <v>      -0.42857143      -0.28571429      -0.40000000 </v>
   <v>      -0.28571429      -0.28571429      -0.40000000 </v>
   <v>      -0.14285714      -0.28571429      -0.40000000 </v>
   <v>       0.00000000      -0.14285714      -0.40000000 </v>
   <v>       0.14285714      -0.14285714      -0.40000000 </v>
   <v>       0.28571429      -0.14285714      -0.40000000 </v>
   <v>       0.42857143      -0.14285714      -0.40000000 </v>
   <v>      -0.42857143      -0.14285714      -0.40000000 </v>
   <v>      -0.28571429      -0.14285714      -0.40000000 </v>
   <v>      -0.14285714      -0.14285714      -0.40000000 </v>
   <v>       0.00000000       0.00000000      -0.20000000 </v>
   <v>       0.14285714       0.00000000      -0.20000000 </v>
   <v>       0.28571429       0.00000000      -0.20000000 </v>
   <v>       0.42857143       0.00000000      -0.20000000 </v>
   <v>      -0.42857143       0.00000000      -0.20000000 </v>
   <v>      -0.28571429       0.00000000      -0.20000000 </v>
   <v>      -0.14285714       0.00000000      -0.20000000 </v>
   <v>       0.00000000       0.14285714      -0.20000000 </v>
   <v>       0.14285714       0.14285714      -0.20000000 </v>
   <v>       0.28571429       0.14285714      -0.20000000 </v>
   <v>       0.42857143       0.14285714      -0.20000000 </v>
   <v>      -0.42857143       0.14285714      -0.20000000 </v>
   <v>      -0.28571429       0.14285714      -0.20000000 </v>
   <v>      -0.14285714       0.14285714      -0.20000000 </v>
   <v>       0.00000000       0.28571429      -0.20000000 </v>
   <v>       0.14285714       0.28571429      -0.20000000 </v>
   <v>       0.28571429       0.28571429      -0.20000000 </v>
   <v>       0.42857143       0.28571429      -0.20000000 </v>
   <v>      -0.42857143       0.28571429      -0.20000000 </v>
   <v>      -0.28571429       0.28571429      -0.20000000 </v>
   <v>      -0.14285714       0.28571429      -0.20000000 </v>
   <v>       0.00000000       0.42857143      -0.20000000 </v>
   <v>       0.14285714       0.42857143      -0.20000000 </v>
   <v>       0.28571429       0.42857143      -0.20000000 </v>
   <v>       0.42857143       0.42857143      -0.20000000 </v>
   <v>      -0.42857143       0.42857143      -0.20000000 </v>
   <v>      -0.28571429       0.42857143      -0.20000000 </v>
   <v>      -0.14285714       0.42857143      -0.20000000 </v>
   <v>       0.00000000      -0.42857143      -0.20000000 </v>
   <v>       0.14285714      -0.42857143      -0.20000000 </v>
   <v>       0.28571429      -0.42857143      -0.20000000 </v>
   <v>       0.42857143      -0.42857143      -0.20000000 </v>
   <v>      -0.42857143      -0.42857143      -0.20000000 </v>
   <v>      -0.28571429      -0.42857143      -0.20000000 </v>
   <v>      -0.14285714      -0.42857143      -0.20000000 </v>
   <v>       0.00000000      -0.28571429      -0.20000000 </v>
   <v>       0.14285714      -0.28571429      -0.20000000 </v>
   <v>       0.28571429      -0.28571429      -0.20000000 </v>
   <v>       0.42857143      -0.28571429      -0.20000000 </v>
   <v>      -0.42857143      -0.28571429      -0.20000000 </v>
   <v>      -0.28571429      -0.28571429      -0.20000000 </v>
   <v>      -0.14285714      -0.28571429      -0.20000000 </v>
   <v>       0.00000000      -0.14285714      -0.20000000 </v>
   <v>       0.14285714      -0.14285714      -0.20000000 </v>
   <v>       0.28571429      -0.14285714      -0.20000000 </v>
   <v>       0.42857143      -0.14285714      -0.20000000 </v>
   <v>      -0.42857143      -0.14285714      -0.20000000 </v>
   <v>      -0.28571429      -0.14285714      -0.20000000 </v>
   <v>      -0.14285714      -0.14285714      -0.20000000 </v>
  </varray>
  <varray name="weights" >
   <v>       0.00408163 </v>
   <v>       0.00408163 </v>
   <v>       0.00408163 </v>
   <v>       0.00408163 </v>
   <v>       0.00408163 </v>
   <v>       0.00408163 </v>
   <v>       0.00408163 </v>
   <v>       0.00408163 </v>
   <v>       0.00408163 </v>
   <v>       0.00408163 </v>
   <v>       0.00408163 </v>
   <v>       0.00408163 </v>
   <v>       0.00408163 </v>
   <v>       0.00408163 </v>
   <v>       0.00408163 </v>
   <v>       0.00408163 </v>
   <v>       0.00408163 </v>
   <v>       0.00408163 </v>
   <v>       0.00408163 </v>
   <v>       0.00408163 </v>
   <v>       0.00408163 </v>
   <v>       0.00408163 </v>
   <v>       0.00408163 </v>
   <v>       0.00408163 </v>
   <v>       0.00408163 </v>
   <v>       0.00408163 </v>
   <v>       0.00408163 </v>
   <v>       0.00408163 </v>
   <v>       0.00408163 </v>
   <v>       0.00408163 </v>
   <v>       0.00408163 </v>
   <v>       0.00408163 </v>
   <v>       0.00408163 </v>
   <v>       0.00408163 </v>
   <v>       0.00408163 </v>
   <v>       0.00408163 </v>
   <v>       0.00408163 </v>
   <v>       0.00408163 </v>
   <v>       0.00408163 </v>
   <v>       0.00408163 </v>
   <v>       0.00408163 </v>
   <v>       0.00408163 </v>
   <v>       0.00408163 </v>
   <v>       0.00408163 </v>
   <v>       0.00408163 </v>
   <v>       0.00408163 </v>
   <v>       0.00408163 </v>
   <v>       0.00408163 </v>
   <v>       0.00408163 </v>
   <v>       0.00408163 </v>
   <v>       0.00408163 </v>
   <v>       0.00408163 </v>
   <v>       0.00408163 </v>
   <v>       0.00408163 </v>
   <v>       0.00408163 </v>
   <v>       0.00408163 </v>
   <v>       0.00408163 </v>
   <v>       0.00408163 </v>
   <v>       0.00408163 </v>
   <v>       0.00408163 </v>
   <v>       0.00408163 </v>
   <v>       0.00408163 </v>
   <v>       0.00408163 </v>
   <v>       0.00408163 </v>
   <v>       0.00408163 </v>
   <v>       0.00408163 </v>
   <v>       0.00408163 </v>
   <v>       0.00408163 </v>
   <v>       0.00408163 </v>
   <v>       0.00408163 </v>
   <v>       0.00408163 </v>
   <v>       0.00408163 </v>
   <v>       0.00408163 </v>
   <v>       0.00408163 </v>
   <v>       0.00408163 </v>
   <v>       0.00408163 </v>
   <v>       0.00408163 </v>
   <v>       0.00408163 </v>
   <v>       0.00408163 </v>
   <v>       0.00408163 </v>
   <v>       0.00408163 </v>
   <v>       0.00408163 </v>
   <v>       0.00408163 </v>
   <v>       0.00408163 </v>
   <v>       0.00408163 </v>
   <v>       0.00408163 </v>
   <v>       0.00408163 </v>
   <v>       0.00408163 </v>
   <v>       0.00408163 </v>
   <v>       0.00408163 </v>
   <v>       0.00408163 </v>
   <v>       0.00408163 </v>
   <v>       0.00408163 </v>
   <v>       0.00408163 </v>
   <v>       0.00408163 </v>
   <v>       0.00408163 </v>
   <v>       0.00408163 </v>
   <v>       0.00408163 </v>
   <v>       0.00408163 </v>
   <v>       0.00408163 </v>
   <v>       0.00408163 </v>
   <v>       0.00408163 </v>
   <v>       0.00408163 </v>
   <v>       0.00408163 </v>
   <v>       0.00408163 </v>
   <v>       0.00408163 </v>
   <v>       0.00408163 </v>
   <v>       0.00408163 </v>
   <v>       0.00408163 </v>
   <v>       0.00408163 </v>
   <v>       0.00408163 </v>
   <v>       0.00408163 </v>
   <v>       0.00408163 </v>
   <v>       0.00408163 </v>
   <v>       0.00408163 </v>
   <v>       0.00408163 </v>
   <v>       0.00408163 </v>
   <v>       0.00408163 </v>
   <v>       0.00408163 </v>
   <v>       0.00408163 </v>
   <v>       0.00408163 </v>
   <v>       0.00408163 </v>
   <v>       0.00408163 </v>
   <v>       0.00408163 </v>
   <v>       0.00408163 </v>
   <v>       0.00408163 </v>
   <v>       0.00408163 </v>
   <v>       0.00408163 </v>
   <v>       0.00408163 </v>
   <v>       0.00408163 </v>
   <v>       0.00408163 </v>
   <v>       0.00408163 </v>
   <v>       0.00408163 </v>
   <v>       0.00408163 </v>
   <v>       0.00408163 </v>
   <v>       0.00408163 </v>
   <v>       0.00408163 </v>
   <v>       0.00408163 </v>
   <v>       0.00408163 </v>
   <v>       0.00408163 </v>
   <v>       0.00408163 </v>
   <v>       0.00408163 </v>
   <v>       0.00408163 </v>
   <v>       0.00408163 </v>
   <v>       0.00408163 </v>
   <v>       0.00408163 </v>
   <v>       0.00408163 </v>
   <v>       0.00408163 </v>
   <v>       0.00408163 </v>
   <v>       0.00408163 </v>
   <v>       0.00408163 </v>
   <v>       0.00408163 </v>
   <v>       0.00408163 </v>
   <v>       0.00408163 </v>
   <v>       0.00408163 </v>
   <v>       0.00408163 </v>
   <v>       0.00408163 </v>
   <v>       0.00408163 </v>
   <v>       0.00408163 </v>
   <v>       0.00408163 </v>
   <v>       0.00408163 </v>
   <v>       0.00408163 </v>
   <v>       0.00408163 </v>
   <v>       0.00408163 </v>
   <v>       0.00408163 </v>
   <v>       0.00408163 </v>
   <v>       0.00408163 </v>
   <v>       0.00408163 </v>
   <v>       0.00408163 </v>
   <v>       0.00408163 </v>
   <v>       0.00408163 </v>
   <v>       0.00408163 </v>
   <v>       0.00408163 </v>
   <v>       0.00408163 </v>
   <v>       0.00408163 </v>
   <v>       0.00408163 </v>
   <v>       0.00408163 </v>
   <v>       0.00408163 </v>
   <v>       0.00408163 </v>
   <v>       0.00408163 </v>
   <v>       0.00408163 </v>
   <v>       0.00408163 </v>
   <v>       0.00408163 </v>
   <v>       0.00408163 </v>
   <v>       0.00408163 </v>
   <v>       0.00408163 </v>
   <v>       0.00408163 </v>
   <v>       0.00408163 </v>
   <v>       0.00408163 </v>
   <v>       0.00408163 </v>
   <v>       0.00408163 </v>
   <v>       0.00408163 </v>
   <v>       0.00408163 </v>
   <v>       0.00408163 </v>
   <v>       0.00408163 </v>
   <v>       0.00408163 </v>
   <v>       0.00408163 </v>
   <v>       0.00408163 </v>
   <v>       0.00408163 </v>
   <v>       0.00408163 </v>
   <v>       0.00408163 </v>
   <v>       0.00408163 </v>
   <v>       0.00408163 </v>
   <v>       0.00408163 </v>
   <v>       0.00408163 </v>
   <v>       0.00408163 </v>
   <v>       0.00408163 </v>
   <v>       0.00408163 </v>
   <v>       0.00408163 </v>
   <v>       0.00408163 </v>
   <v>       0.00408163 </v>
   <v>       0.00408163 </v>
   <v>       0.00408163 </v>
   <v>       0.00408163 </v>
   <v>       0.00408163 </v>
   <v>       0.00408163 </v>
   <v>       0.00408163 </v>
   <v>       0.00408163 </v>
   <v>       0.00408163 </v>
   <v>       0.00408163 </v>
   <v>       0.00408163 </v>
   <v>       0.00408163 </v>
   <v>       0.00408163 </v>
   <v>       0.00408163 </v>
   <v>       0.00408163 </v>
   <v>       0.00408163 </v>
   <v>       0.00408163 </v>
   <v>       0.00408163 </v>
   <v>       0.00408163 </v>
   <v>       0.00408163 </v>
   <v>       0.00408163 </v>
   <v>       0.00408163 </v>
   <v>       0.00408163 </v>
   <v>       0.00408163 </v>
   <v>       0.00408163 </v>
   <v>       0.00408163 </v>
   <v>       0.00408163 </v>
   <v>       0.00408163 </v>
   <v>       0.00408163 </v>
   <v>       0.00408163 </v>
   <v>       0.00408163 </v>
   <v>       0.00408163 </v>
   <v>       0.00408163 </v>
   <v>       0.00408163 </v>
   <v>       0.00408163 </v>
  </varray>
  <varray name="tetrahedronlist"  type="int" >
   <v type="int" >        1        1        2        8       51 </v>
   <v type="int" >        1        2        8        9       51 </v>
   <v type="int" >        1        8        9       51       58 </v>
   <v type="int" >        1        1        8       50       51 </v>
   <v type="int" >        1        8       50       51       57 </v>
   <v type="int" >        1        8       51       57       58 </v>
   <v type="int" >        1        2        3        9       52 </v>
   <v type="int" >        1        3        9       10       52 </v>
   <v type="int" >        1        9       10       52       59 </v>
   <v type="int" >        1        2        9       51       52 </v>
   <v type="int" >        1        9       51       52       58 </v>
   <v type="int" >        1        9       52       58       59 </v>
   <v type="int" >        1        3        4       10       53 </v>
   <v type="int" >        1        4       10       11       53 </v>
   <v type="int" >        1       10       11       53       60 </v>
   <v type="int" >        1        3       10       52       53 </v>
   <v type="int" >        1       10       52       53       59 </v>
   <v type="int" >        1       10       53       59       60 </v>
   <v type="int" >        1        4        5       11       54 </v>
   <v type="int" >        1        5       11       12       54 </v>
   <v type="int" >        1       11       12       54       61 </v>
   <v type="int" >        1        4       11       53       54 </v>
   <v type="int" >        1       11       53       54       60 </v>
   <v type="int" >        1       11       54       60       61 </v>
   <v type="int" >        1        5        6       12       55 </v>
   <v type="int" >        1        6       12       13       55 </v>
   <v type="int" >        1       12       13       55       62 </v>
   <v type="int" >        1        5       12       54       55 </v>
   <v type="int" >        1       12       54       55       61 </v>
   <v type="int" >        1       12       55       61       62 </v>
   <v type="int" >        1        6        7       13       56 </v>
   <v type="int" >        1        7       13       14       56 </v>
   <v type="int" >        1       13       14       56       63 </v>
   <v type="int" >        1        6       13       55       56 </v>
   <v type="int" >        1       13       55       56       62 </v>
   <v type="int" >        1       13       56       62       63 </v>
   <v type="int" >        1        1        7       14       50 </v>
   <v type="int" >        1        1        8       14       50 </v>
   <v type="int" >        1        8       14       50       57 </v>
   <v type="int" >        1        7       14       50       56 </v>
   <v type="int" >        1       14       50       56       63 </v>
   <v type="int" >        1       14       50       57       63 </v>
   <v type="int" >        1        8        9       15       58 </v>
   <v type="int" >        1        9       15       16       58 </v>
   <v type="int" >        1       15       16       58       65 </v>
   <v type="int" >        1        8       15       57       58 </v>
   <v type="int" >        1       15       57       58       64 </v>
   <v type="int" >        1       15       58       64       65 </v>
   <v type="int" >        1        9       10       16       59 </v>
   <v type="int" >        1       10       16       17       59 </v>
   <v type="int" >        1       16       17       59       66 </v>
   <v type="int" >        1        9       16       58       59 </v>
   <v type="int" >        1       16       58       59       65 </v>
   <v type="int" >        1       16       59       65       66 </v>
   <v type="int" >        1       10       11       17       60 </v>
   <v type="int" >        1       11       17       18       60 </v>
   <v type="int" >        1       17       18       60       67 </v>
   <v type="int" >        1       10       17       59       60 </v>
   <v type="int" >        1       17       59       60       66 </v>
   <v type="int" >        1       17       60       66       67 </v>
   <v type="int" >        1       11       12       18       61 </v>
   <v type="int" >        1       12       18       19       61 </v>
   <v type="int" >        1       18       19       61       68 </v>
   <v type="int" >        1       11       18       60       61 </v>
   <v type="int" >        1       18       60       61       67 </v>
   <v type="int" >        1       18       61       67       68 </v>
   <v type="int" >        1       12       13       19       62 </v>
   <v type="int" >        1       13       19       20       62 </v>
   <v type="int" >        1       19       20       62       69 </v>
   <v type="int" >        1       12       19       61       62 </v>
   <v type="int" >        1       19       61       62       68 </v>
   <v type="int" >        1       19       62       68       69 </v>
   <v type="int" >        1       13       14       20       63 </v>
   <v type="int" >        1       14       20       21       63 </v>
   <v type="int" >        1       20       21       63       70 </v>
   <v type="int" >        1       13       20       62       63 </v>
   <v type="int" >        1       20       62       63       69 </v>
   <v type="int" >        1       20       63       69       70 </v>
   <v type="int" >        1        8       14       21       57 </v>
   <v type="int" >        1        8       15       21       57 </v>
   <v type="int" >        1       15       21       57       64 </v>
   <v type="int" >        1       14       21       57       63 </v>
   <v type="int" >        1       21       57       63       70 </v>
   <v type="int" >        1       21       57       64       70 </v>
   <v type="int" >        1       15       16       22       65 </v>
   <v type="int" >        1       16       22       23       65 </v>
   <v type="int" >        1       22       23       65       72 </v>
   <v type="int" >        1       15       22       64       65 </v>
   <v type="int" >        1       22       64       65       71 </v>
   <v type="int" >        1       22       65       71       72 </v>
   <v type="int" >        1       16       17       23       66 </v>
   <v type="int" >        1       17       23       24       66 </v>
   <v type="int" >        1       23       24       66       73 </v>
   <v type="int" >        1       16       23       65       66 </v>
   <v type="int" >        1       23       65       66       72 </v>
   <v type="int" >        1       23       66       72       73 </v>
   <v type="int" >        1       17       18       24       67 </v>
   <v type="int" >        1       18       24       25       67 </v>
   <v type="int" >        1       24       25       67       74 </v>
   <v type="int" >        1       17       24       66       67 </v>
   <v type="int" >        1       24       66       67       73 </v>
   <v type="int" >        1       24       67       73       74 </v>
   <v type="int" >        1       18       19       25       68 </v>
   <v type="int" >        1       19       25       26       68 </v>
   <v type="int" >        1       25       26       68       75 </v>
   <v type="int" >        1       18       25       67       68 </v>
   <v type="int" >        1       25       67       68       74 </v>
   <v type="int" >        1       25       68       74       75 </v>
   <v type="int" >        1       19       20       26       69 </v>
   <v type="int" >        1       20       26       27       69 </v>
   <v type="int" >        1       26       27       69       76 </v>
   <v type="int" >        1       19       26       68       69 </v>
   <v type="int" >        1       26       68       69       75 </v>
   <v type="int" >        1       26       69       75       76 </v>
   <v type="int" >        1       20       21       27       70 </v>
   <v type="int" >        1       21       27       28       70 </v>
   <v type="int" >        1       27       28       70       77 </v>
   <v type="int" >        1       20       27       69       70 </v>
   <v type="int" >        1       27       69       70       76 </v>
   <v type="int" >        1       27       70       76       77 </v>
   <v type="int" >        1       15       21       28       64 </v>
   <v type="int" >        1       15       22       28       64 </v>
   <v type="int" >        1       22       28       64       71 </v>
   <v type="int" >        1       21       28       64       70 </v>
   <v type="int" >        1       28       64       70       77 </v>
   <v type="int" >        1       28       64       71       77 </v>
   <v type="int" >        1       22       23       29       72 </v>
   <v type="int" >        1       23       29       30       72 </v>
   <v type="int" >        1       29       30       72       79 </v>
   <v type="int" >        1       22       29       71       72 </v>
   <v type="int" >        1       29       71       72       78 </v>
   <v type="int" >        1       29       72       78       79 </v>
   <v type="int" >        1       23       24       30       73 </v>
   <v type="int" >        1       24       30       31       73 </v>
   <v type="int" >        1       30       31       73       80 </v>
   <v type="int" >        1       23       30       72       73 </v>
   <v type="int" >        1       30       72       73       79 </v>
   <v type="int" >        1       30       73       79       80 </v>
   <v type="int" >        1       24       25       31       74 </v>
   <v type="int" >        1       25       31       32       74 </v>
   <v type="int" >        1       31       32       74       81 </v>
   <v type="int" >        1       24       31       73       74 </v>
   <v type="int" >        1       31       73       74       80 </v>
   <v type="int" >        1       31       74       80       81 </v>
   <v type="int" >        1       25       26       32       75 </v>
   <v type="int" >        1       26       32       33       75 </v>
   <v type="int" >        1       32       33       75       82 </v>
   <v type="int" >        1       25       32       74       75 </v>
   <v type="int" >        1       32       74       75       81 </v>
   <v type="int" >        1       32       75       81       82 </v>
   <v type="int" >        1       26       27       33       76 </v>
   <v type="int" >        1       27       33       34       76 </v>
   <v type="int" >        1       33       34       76       83 </v>
   <v type="int" >        1       26       33       75       76 </v>
   <v type="int" >        1       33       75       76       82 </v>
   <v type="int" >        1       33       76       82       83 </v>
   <v type="int" >        1       27       28       34       77 </v>
   <v type="int" >        1       28       34       35       77 </v>
   <v type="int" >        1       34       35       77       84 </v>
   <v type="int" >        1       27       34       76       77 </v>
   <v type="int" >        1       34       76       77       83 </v>
   <v type="int" >        1       34       77       83       84 </v>
   <v type="int" >        1       22       28       35       71 </v>
   <v type="int" >        1       22       29       35       71 </v>
   <v type="int" >        1       29       35       71       78 </v>
   <v type="int" >        1       28       35       71       77 </v>
   <v type="int" >        1       35       71       77       84 </v>
   <v type="int" >        1       35       71       78       84 </v>
   <v type="int" >        1       29       30       36       79 </v>
   <v type="int" >        1       30       36       37       79 </v>
   <v type="int" >        1       36       37       79       86 </v>
   <v type="int" >        1       29       36       78       79 </v>
   <v type="int" >        1       36       78       79       85 </v>
   <v type="int" >        1       36       79       85       86 </v>
   <v type="int" >        1       30       31       37       80 </v>
   <v type="int" >        1       31       37       38       80 </v>
   <v type="int" >        1       37       38       80       87 </v>
   <v type="int" >        1       30       37       79       80 </v>
   <v type="int" >        1       37       79       80       86 </v>
   <v type="int" >        1       37       80       86       87 </v>
   <v type="int" >        1       31       32       38       81 </v>
   <v type="int" >        1       32       38       39       81 </v>
   <v type="int" >        1       38       39       81       88 </v>
   <v type="int" >        1       31       38       80       81 </v>
   <v type="int" >        1       38       80       81       87 </v>
   <v type="int" >        1       38       81       87       88 </v>
   <v type="int" >        1       32       33       39       82 </v>
   <v type="int" >        1       33       39       40       82 </v>
   <v type="int" >        1       39       40       82       89 </v>
   <v type="int" >        1       32       39       81       82 </v>
   <v type="int" >        1       39       81       82       88 </v>
   <v type="int" >        1       39       82       88       89 </v>
   <v type="int" >        1       33       34       40       83 </v>
   <v type="int" >        1       34       40       41       83 </v>
   <v type="int" >        1       40       41       83       90 </v>
   <v type="int" >        1       33       40       82       83 </v>
   <v type="int" >        1       40       82       83       89 </v>
   <v type="int" >        1       40       83       89       90 </v>
   <v type="int" >        1       34       35       41       84 </v>
   <v type="int" >        1       35       41       42       84 </v>
   <v type="int" >        1       41       42       84       91 </v>
   <v type="int" >        1       34       41       83       84 </v>
   <v type="int" >        1       41       83       84       90 </v>
   <v type="int" >        1       41       84       90       91 </v>
   <v type="int" >        1       29       35       42       78 </v>
   <v type="int" >        1       29       36       42       78 </v>
   <v type="int" >        1       36       42       78       85 </v>
   <v type="int" >        1       35       42       78       84 </v>
   <v type="int" >        1       42       78       84       91 </v>
   <v type="int" >        1       42       78       85       91 </v>
   <v type="int" >        1       36       37       43       86 </v>
   <v type="int" >        1       37       43       44       86 </v>
   <v type="int" >        1       43       44       86       93 </v>
   <v type="int" >        1       36       43       85       86 </v>
   <v type="int" >        1       43       85       86       92 </v>
   <v type="int" >        1       43       86       92       93 </v>
   <v type="int" >        1       37       38       44       87 </v>
   <v type="int" >        1       38       44       45       87 </v>
   <v type="int" >        1       44       45       87       94 </v>
   <v type="int" >        1       37       44       86       87 </v>
   <v type="int" >        1       44       86       87       93 </v>
   <v type="int" >        1       44       87       93       94 </v>
   <v type="int" >        1       38       39       45       88 </v>
   <v type="int" >        1       39       45       46       88 </v>
   <v type="int" >        1       45       46       88       95 </v>
   <v type="int" >        1       38       45       87       88 </v>
   <v type="int" >        1       45       87       88       94 </v>
   <v type="int" >        1       45       88       94       95 </v>
   <v type="int" >        1       39       40       46       89 </v>
   <v type="int" >        1       40       46       47       89 </v>
   <v type="int" >        1       46       47       89       96 </v>
   <v type="int" >        1       39       46       88       89 </v>
   <v type="int" >        1       46       88       89       95 </v>
   <v type="int" >        1       46       89       95       96 </v>
   <v type="int" >        1       40       41       47       90 </v>
   <v type="int" >        1       41       47       48       90 </v>
   <v type="int" >        1       47       48       90       97 </v>
   <v type="int" >        1       40       47       89       90 </v>
   <v type="int" >        1       47       89       90       96 </v>
   <v type="int" >        1       47       90       96       97 </v>
   <v type="int" >        1       41       42       48       91 </v>
   <v type="int" >        1       42       48       49       91 </v>
   <v type="int" >        1       48       49       91       98 </v>
   <v type="int" >        1       41       48       90       91 </v>
   <v type="int" >        1       48       90       91       97 </v>
   <v type="int" >        1       48       91       97       98 </v>
   <v type="int" >        1       36       42       49       85 </v>
   <v type="int" >        1       36       43       49       85 </v>
   <v type="int" >        1       43       49       85       92 </v>
   <v type="int" >        1       42       49       85       91 </v>
   <v type="int" >        1       49       85       91       98 </v>
   <v type="int" >        1       49       85       92       98 </v>
   <v type="int" >        1        1       43       44       93 </v>
   <v type="int" >        1        1        2       44       93 </v>
   <v type="int" >        1        1        2       51       93 </v>
   <v type="int" >        1        1       43       92       93 </v>
   <v type="int" >        1        1       50       92       93 </v>
   <v type="int" >        1        1       50       51       93 </v>
   <v type="int" >        1        2       44       45       94 </v>
   <v type="int" >        1        2        3       45       94 </v>
   <v type="int" >        1        2        3       52       94 </v>
   <v type="int" >        1        2       44       93       94 </v>
   <v type="int" >        1        2       51       93       94 </v>
   <v type="int" >        1        2       51       52       94 </v>
   <v type="int" >        1        3       45       46       95 </v>
   <v type="int" >        1        3        4       46       95 </v>
   <v type="int" >        1        3        4       53       95 </v>
   <v type="int" >        1        3       45       94       95 </v>
   <v type="int" >        1        3       52       94       95 </v>
   <v type="int" >        1        3       52       53       95 </v>
   <v type="int" >        1        4       46       47       96 </v>
   <v type="int" >        1        4        5       47       96 </v>
   <v type="int" >        1        4        5       54       96 </v>
   <v type="int" >        1        4       46       95       96 </v>
   <v type="int" >        1        4       53       95       96 </v>
   <v type="int" >        1        4       53       54       96 </v>
   <v type="int" >        1        5       47       48       97 </v>
   <v type="int" >        1        5        6       48       97 </v>
   <v type="int" >        1        5        6       55       97 </v>
   <v type="int" >        1        5       47       96       97 </v>
   <v type="int" >        1        5       54       96       97 </v>
   <v type="int" >        1        5       54       55       97 </v>
   <v type="int" >        1        6       48       49       98 </v>
   <v type="int" >        1        6        7       49       98 </v>
   <v type="int" >        1        6        7       56       98 </v>
   <v type="int" >        1        6       48       97       98 </v>
   <v type="int" >        1        6       55       97       98 </v>
   <v type="int" >        1        6       55       56       98 </v>
   <v type="int" >        1        7       43       49       92 </v>
   <v type="int" >        1        1        7       43       92 </v>
   <v type="int" >        1        1        7       50       92 </v>
   <v type="int" >        1        7       49       92       98 </v>
   <v type="int" >        1        7       56       92       98 </v>
   <v type="int" >        1        7       50       56       92 </v>
   <v type="int" >        1       50       51       57      100 </v>
   <v type="int" >        1       51       57       58      100 </v>
   <v type="int" >        1       57       58      100      107 </v>
   <v type="int" >        1       50       57       99      100 </v>
   <v type="int" >        1       57       99      100      106 </v>
   <v type="int" >        1       57      100      106      107 </v>
   <v type="int" >        1       51       52       58      101 </v>
   <v type="int" >        1       52       58       59      101 </v>
   <v type="int" >        1       58       59      101      108 </v>
   <v type="int" >        1       51       58      100      101 </v>
   <v type="int" >        1       58      100      101      107 </v>
   <v type="int" >        1       58      101      107      108 </v>
   <v type="int" >        1       52       53       59      102 </v>
   <v type="int" >        1       53       59       60      102 </v>
   <v type="int" >        1       59       60      102      109 </v>
   <v type="int" >        1       52       59      101      102 </v>
   <v type="int" >        1       59      101      102      108 </v>
   <v type="int" >        1       59      102      108      109 </v>
   <v type="int" >        1       53       54       60      103 </v>
   <v type="int" >        1       54       60       61      103 </v>
   <v type="int" >        1       60       61      103      110 </v>
   <v type="int" >        1       53       60      102      103 </v>
   <v type="int" >        1       60      102      103      109 </v>
   <v type="int" >        1       60      103      109      110 </v>
   <v type="int" >        1       54       55       61      104 </v>
   <v type="int" >        1       55       61       62      104 </v>
   <v type="int" >        1       61       62      104      111 </v>
   <v type="int" >        1       54       61      103      104 </v>
   <v type="int" >        1       61      103      104      110 </v>
   <v type="int" >        1       61      104      110      111 </v>
   <v type="int" >        1       55       56       62      105 </v>
   <v type="int" >        1       56       62       63      105 </v>
   <v type="int" >        1       62       63      105      112 </v>
   <v type="int" >        1       55       62      104      105 </v>
   <v type="int" >        1       62      104      105      111 </v>
   <v type="int" >        1       62      105      111      112 </v>
   <v type="int" >        1       50       56       63       99 </v>
   <v type="int" >        1       50       57       63       99 </v>
   <v type="int" >        1       57       63       99      106 </v>
   <v type="int" >        1       56       63       99      105 </v>
   <v type="int" >        1       63       99      105      112 </v>
   <v type="int" >        1       63       99      106      112 </v>
   <v type="int" >        1       57       58       64      107 </v>
   <v type="int" >        1       58       64       65      107 </v>
   <v type="int" >        1       64       65      107      114 </v>
   <v type="int" >        1       57       64      106      107 </v>
   <v type="int" >        1       64      106      107      113 </v>
   <v type="int" >        1       64      107      113      114 </v>
   <v type="int" >        1       58       59       65      108 </v>
   <v type="int" >        1       59       65       66      108 </v>
   <v type="int" >        1       65       66      108      115 </v>
   <v type="int" >        1       58       65      107      108 </v>
   <v type="int" >        1       65      107      108      114 </v>
   <v type="int" >        1       65      108      114      115 </v>
   <v type="int" >        1       59       60       66      109 </v>
   <v type="int" >        1       60       66       67      109 </v>
   <v type="int" >        1       66       67      109      116 </v>
   <v type="int" >        1       59       66      108      109 </v>
   <v type="int" >        1       66      108      109      115 </v>
   <v type="int" >        1       66      109      115      116 </v>
   <v type="int" >        1       60       61       67      110 </v>
   <v type="int" >        1       61       67       68      110 </v>
   <v type="int" >        1       67       68      110      117 </v>
   <v type="int" >        1       60       67      109      110 </v>
   <v type="int" >        1       67      109      110      116 </v>
   <v type="int" >        1       67      110      116      117 </v>
   <v type="int" >        1       61       62       68      111 </v>
   <v type="int" >        1       62       68       69      111 </v>
   <v type="int" >        1       68       69      111      118 </v>
   <v type="int" >        1       61       68      110      111 </v>
   <v type="int" >        1       68      110      111      117 </v>
   <v type="int" >        1       68      111      117      118 </v>
   <v type="int" >        1       62       63       69      112 </v>
   <v type="int" >        1       63       69       70      112 </v>
   <v type="int" >        1       69       70      112      119 </v>
   <v type="int" >        1       62       69      111      112 </v>
   <v type="int" >        1       69      111      112      118 </v>
   <v type="int" >        1       69      112      118      119 </v>
   <v type="int" >        1       57       63       70      106 </v>
   <v type="int" >        1       57       64       70      106 </v>
   <v type="int" >        1       64       70      106      113 </v>
   <v type="int" >        1       63       70      106      112 </v>
   <v type="int" >        1       70      106      112      119 </v>
   <v type="int" >        1       70      106      113      119 </v>
   <v type="int" >        1       64       65       71      114 </v>
   <v type="int" >        1       65       71       72      114 </v>
   <v type="int" >        1       71       72      114      121 </v>
   <v type="int" >        1       64       71      113      114 </v>
   <v type="int" >        1       71      113      114      120 </v>
   <v type="int" >        1       71      114      120      121 </v>
   <v type="int" >        1       65       66       72      115 </v>
   <v type="int" >        1       66       72       73      115 </v>
   <v type="int" >        1       72       73      115      122 </v>
   <v type="int" >        1       65       72      114      115 </v>
   <v type="int" >        1       72      114      115      121 </v>
   <v type="int" >        1       72      115      121      122 </v>
   <v type="int" >        1       66       67       73      116 </v>
   <v type="int" >        1       67       73       74      116 </v>
   <v type="int" >        1       73       74      116      123 </v>
   <v type="int" >        1       66       73      115      116 </v>
   <v type="int" >        1       73      115      116      122 </v>
   <v type="int" >        1       73      116      122      123 </v>
   <v type="int" >        1       67       68       74      117 </v>
   <v type="int" >        1       68       74       75      117 </v>
   <v type="int" >        1       74       75      117      124 </v>
   <v type="int" >        1       67       74      116      117 </v>
   <v type="int" >        1       74      116      117      123 </v>
   <v type="int" >        1       74      117      123      124 </v>
   <v type="int" >        1       68       69       75      118 </v>
   <v type="int" >        1       69       75       76      118 </v>
   <v type="int" >        1       75       76      118      125 </v>
   <v type="int" >        1       68       75      117      118 </v>
   <v type="int" >        1       75      117      118      124 </v>
   <v type="int" >        1       75      118      124      125 </v>
   <v type="int" >        1       69       70       76      119 </v>
   <v type="int" >        1       70       76       77      119 </v>
   <v type="int" >        1       76       77      119      126 </v>
   <v type="int" >        1       69       76      118      119 </v>
   <v type="int" >        1       76      118      119      125 </v>
   <v type="int" >        1       76      119      125      126 </v>
   <v type="int" >        1       64       70       77      113 </v>
   <v type="int" >        1       64       71       77      113 </v>
   <v type="int" >        1       71       77      113      120 </v>
   <v type="int" >        1       70       77      113      119 </v>
   <v type="int" >        1       77      113      119      126 </v>
   <v type="int" >        1       77      113      120      126 </v>
   <v type="int" >        1       71       72       78      121 </v>
   <v type="int" >        1       72       78       79      121 </v>
   <v type="int" >        1       78       79      121      128 </v>
   <v type="int" >        1       71       78      120      121 </v>
   <v type="int" >        1       78      120      121      127 </v>
   <v type="int" >        1       78      121      127      128 </v>
   <v type="int" >        1       72       73       79      122 </v>
   <v type="int" >        1       73       79       80      122 </v>
   <v type="int" >        1       79       80      122      129 </v>
   <v type="int" >        1       72       79      121      122 </v>
   <v type="int" >        1       79      121      122      128 </v>
   <v type="int" >        1       79      122      128      129 </v>
   <v type="int" >        1       73       74       80      123 </v>
   <v type="int" >        1       74       80       81      123 </v>
   <v type="int" >        1       80       81      123      130 </v>
   <v type="int" >        1       73       80      122      123 </v>
   <v type="int" >        1       80      122      123      129 </v>
   <v type="int" >        1       80      123      129      130 </v>
   <v type="int" >        1       74       75       81      124 </v>
   <v type="int" >        1       75       81       82      124 </v>
   <v type="int" >        1       81       82      124      131 </v>
   <v type="int" >        1       74       81      123      124 </v>
   <v type="int" >        1       81      123      124      130 </v>
   <v type="int" >        1       81      124      130      131 </v>
   <v type="int" >        1       75       76       82      125 </v>
   <v type="int" >        1       76       82       83      125 </v>
   <v type="int" >        1       82       83      125      132 </v>
   <v type="int" >        1       75       82      124      125 </v>
   <v type="int" >        1       82      124      125      131 </v>
   <v type="int" >        1       82      125      131      132 </v>
   <v type="int" >        1       76       77       83      126 </v>
   <v type="int" >        1       77       83       84      126 </v>
   <v type="int" >        1       83       84      126      133 </v>
   <v type="int" >        1       76       83      125      126 </v>
   <v type="int" >        1       83      125      126      132 </v>
   <v type="int" >        1       83      126      132      133 </v>
   <v type="int" >        1       71       77       84      120 </v>
   <v type="int" >        1       71       78       84      120 </v>
   <v type="int" >        1       78       84      120      127 </v>
   <v type="int" >        1       77       84      120      126 </v>
   <v type="int" >        1       84      120      126      133 </v>
   <v type="int" >        1       84      120      127      133 </v>
   <v type="int" >        1       78       79       85      128 </v>
   <v type="int" >        1       79       85       86      128 </v>
   <v type="int" >        1       85       86      128      135 </v>
   <v type="int" >        1       78       85      127      128 </v>
   <v type="int" >        1       85      127      128      134 </v>
   <v type="int" >        1       85      128      134      135 </v>
   <v type="int" >        1       79       80       86      129 </v>
   <v type="int" >        1       80       86       87      129 </v>
   <v type="int" >        1       86       87      129      136 </v>
   <v type="int" >        1       79       86      128      129 </v>
   <v type="int" >        1       86      128      129      135 </v>
   <v type="int" >        1       86      129      135      136 </v>
   <v type="int" >        1       80       81       87      130 </v>
   <v type="int" >        1       81       87       88      130 </v>
   <v type="int" >        1       87       88      130      137 </v>
   <v type="int" >        1       80       87      129      130 </v>
   <v type="int" >        1       87      129      130      136 </v>
   <v type="int" >        1       87      130      136      137 </v>
   <v type="int" >        1       81       82       88      131 </v>
   <v type="int" >        1       82       88       89      131 </v>
   <v type="int" >        1       88       89      131      138 </v>
   <v type="int" >        1       81       88      130      131 </v>
   <v type="int" >        1       88      130      131      137 </v>
   <v type="int" >        1       88      131      137      138 </v>
   <v type="int" >        1       82       83       89      132 </v>
   <v type="int" >        1       83       89       90      132 </v>
   <v type="int" >        1       89       90      132      139 </v>
   <v type="int" >        1       82       89      131      132 </v>
   <v type="int" >        1       89      131      132      138 </v>
   <v type="int" >        1       89      132      138      139 </v>
   <v type="int" >        1       83       84       90      133 </v>
   <v type="int" >        1       84       90       91      133 </v>
   <v type="int" >        1       90       91      133      140 </v>
   <v type="int" >        1       83       90      132      133 </v>
   <v type="int" >        1       90      132      133      139 </v>
   <v type="int" >        1       90      133      139      140 </v>
   <v type="int" >        1       78       84       91      127 </v>
   <v type="int" >        1       78       85       91      127 </v>
   <v type="int" >        1       85       91      127      134 </v>
   <v type="int" >        1       84       91      127      133 </v>
   <v type="int" >        1       91      127      133      140 </v>
   <v type="int" >        1       91      127      134      140 </v>
   <v type="int" >        1       85       86       92      135 </v>
   <v type="int" >        1       86       92       93      135 </v>
   <v type="int" >        1       92       93      135      142 </v>
   <v type="int" >        1       85       92      134      135 </v>
   <v type="int" >        1       92      134      135      141 </v>
   <v type="int" >        1       92      135      141      142 </v>
   <v type="int" >        1       86       87       93      136 </v>
   <v type="int" >        1       87       93       94      136 </v>
   <v type="int" >        1       93       94      136      143 </v>
   <v type="int" >        1       86       93      135      136 </v>
   <v type="int" >        1       93      135      136      142 </v>
   <v type="int" >        1       93      136      142      143 </v>
   <v type="int" >        1       87       88       94      137 </v>
   <v type="int" >        1       88       94       95      137 </v>
   <v type="int" >        1       94       95      137      144 </v>
   <v type="int" >        1       87       94      136      137 </v>
   <v type="int" >        1       94      136      137      143 </v>
   <v type="int" >        1       94      137      143      144 </v>
   <v type="int" >        1       88       89       95      138 </v>
   <v type="int" >        1       89       95       96      138 </v>
   <v type="int" >        1       95       96      138      145 </v>
   <v type="int" >        1       88       95      137      138 </v>
   <v type="int" >        1       95      137      138      144 </v>
   <v type="int" >        1       95      138      144      145 </v>
   <v type="int" >        1       89       90       96      139 </v>
   <v type="int" >        1       90       96       97      139 </v>
   <v type="int" >        1       96       97      139      146 </v>
   <v type="int" >        1       89       96      138      139 </v>
   <v type="int" >        1       96      138      139      145 </v>
   <v type="int" >        1       96      139      145      146 </v>
   <v type="int" >        1       90       91       97      140 </v>
   <v type="int" >        1       91       97       98      140 </v>
   <v type="int" >        1       97       98      140      147 </v>
   <v type="int" >        1       90       97      139      140 </v>
   <v type="int" >        1       97      139      140      146 </v>
   <v type="int" >        1       97      140      146      147 </v>
   <v type="int" >        1       85       91       98      134 </v>
   <v type="int" >        1       85       92       98      134 </v>
   <v type="int" >        1       92       98      134      141 </v>
   <v type="int" >        1       91       98      134      140 </v>
   <v type="int" >        1       98      134      140      147 </v>
   <v type="int" >        1       98      134      141      147 </v>
   <v type="int" >        1       50       92       93      142 </v>
   <v type="int" >        1       50       51       93      142 </v>
   <v type="int" >        1       50       51      100      142 </v>
   <v type="int" >        1       50       92      141      142 </v>
   <v type="int" >        1       50       99      141      142 </v>
   <v type="int" >        1       50       99      100      142 </v>
   <v type="int" >        1       51       93       94      143 </v>
   <v type="int" >        1       51       52       94      143 </v>
   <v type="int" >        1       51       52      101      143 </v>
   <v type="int" >        1       51       93      142      143 </v>
   <v type="int" >        1       51      100      142      143 </v>
   <v type="int" >        1       51      100      101      143 </v>
   <v type="int" >        1       52       94       95      144 </v>
   <v type="int" >        1       52       53       95      144 </v>
   <v type="int" >        1       52       53      102      144 </v>
   <v type="int" >        1       52       94      143      144 </v>
   <v type="int" >        1       52      101      143      144 </v>
   <v type="int" >        1       52      101      102      144 </v>
   <v type="int" >        1       53       95       96      145 </v>
   <v type="int" >        1       53       54       96      145 </v>
   <v type="int" >        1       53       54      103      145 </v>
   <v type="int" >        1       53       95      144      145 </v>
   <v type="int" >        1       53      102      144      145 </v>
   <v type="int" >        1       53      102      103      145 </v>
   <v type="int" >        1       54       96       97      146 </v>
   <v type="int" >        1       54       55       97      146 </v>
   <v type="int" >        1       54       55      104      146 </v>
   <v type="int" >        1       54       96      145      146 </v>
   <v type="int" >        1       54      103      145      146 </v>
   <v type="int" >        1       54      103      104      146 </v>
   <v type="int" >        1       55       97       98      147 </v>
   <v type="int" >        1       55       56       98      147 </v>
   <v type="int" >        1       55       56      105      147 </v>
   <v type="int" >        1       55       97      146      147 </v>
   <v type="int" >        1       55      104      146      147 </v>
   <v type="int" >        1       55      104      105      147 </v>
   <v type="int" >        1       56       92       98      141 </v>
   <v type="int" >        1       50       56       92      141 </v>
   <v type="int" >        1       50       56       99      141 </v>
   <v type="int" >        1       56       98      141      147 </v>
   <v type="int" >        1       56      105      141      147 </v>
   <v type="int" >        1       56       99      105      141 </v>
   <v type="int" >        1       99      100      106      149 </v>
   <v type="int" >        1      100      106      107      149 </v>
   <v type="int" >        1      106      107      149      156 </v>
   <v type="int" >        1       99      106      148      149 </v>
   <v type="int" >        1      106      148      149      155 </v>
   <v type="int" >        1      106      149      155      156 </v>
   <v type="int" >        1      100      101      107      150 </v>
   <v type="int" >        1      101      107      108      150 </v>
   <v type="int" >        1      107      108      150      157 </v>
   <v type="int" >        1      100      107      149      150 </v>
   <v type="int" >        1      107      149      150      156 </v>
   <v type="int" >        1      107      150      156      157 </v>
   <v type="int" >        1      101      102      108      151 </v>
   <v type="int" >        1      102      108      109      151 </v>
   <v type="int" >        1      108      109      151      158 </v>
   <v type="int" >        1      101      108      150      151 </v>
   <v type="int" >        1      108      150      151      157 </v>
   <v type="int" >        1      108      151      157      158 </v>
   <v type="int" >        1      102      103      109      152 </v>
   <v type="int" >        1      103      109      110      152 </v>
   <v type="int" >        1      109      110      152      159 </v>
   <v type="int" >        1      102      109      151      152 </v>
   <v type="int" >        1      109      151      152      158 </v>
   <v type="int" >        1      109      152      158      159 </v>
   <v type="int" >        1      103      104      110      153 </v>
   <v type="int" >        1      104      110      111      153 </v>
   <v type="int" >        1      110      111      153      160 </v>
   <v type="int" >        1      103      110      152      153 </v>
   <v type="int" >        1      110      152      153      159 </v>
   <v type="int" >        1      110      153      159      160 </v>
   <v type="int" >        1      104      105      111      154 </v>
   <v type="int" >        1      105      111      112      154 </v>
   <v type="int" >        1      111      112      154      161 </v>
   <v type="int" >        1      104      111      153      154 </v>
   <v type="int" >        1      111      153      154      160 </v>
   <v type="int" >        1      111      154      160      161 </v>
   <v type="int" >        1       99      105      112      148 </v>
   <v type="int" >        1       99      106      112      148 </v>
   <v type="int" >        1      106      112      148      155 </v>
   <v type="int" >        1      105      112      148      154 </v>
   <v type="int" >        1      112      148      154      161 </v>
   <v type="int" >        1      112      148      155      161 </v>
   <v type="int" >        1      106      107      113      156 </v>
   <v type="int" >        1      107      113      114      156 </v>
   <v type="int" >        1      113      114      156      163 </v>
   <v type="int" >        1      106      113      155      156 </v>
   <v type="int" >        1      113      155      156      162 </v>
   <v type="int" >        1      113      156      162      163 </v>
   <v type="int" >        1      107      108      114      157 </v>
   <v type="int" >        1      108      114      115      157 </v>
   <v type="int" >        1      114      115      157      164 </v>
   <v type="int" >        1      107      114      156      157 </v>
   <v type="int" >        1      114      156      157      163 </v>
   <v type="int" >        1      114      157      163      164 </v>
   <v type="int" >        1      108      109      115      158 </v>
   <v type="int" >        1      109      115      116      158 </v>
   <v type="int" >        1      115      116      158      165 </v>
   <v type="int" >        1      108      115      157      158 </v>
   <v type="int" >        1      115      157      158      164 </v>
   <v type="int" >        1      115      158      164      165 </v>
   <v type="int" >        1      109      110      116      159 </v>
   <v type="int" >        1      110      116      117      159 </v>
   <v type="int" >        1      116      117      159      166 </v>
   <v type="int" >        1      109      116      158      159 </v>
   <v type="int" >        1      116      158      159      165 </v>
   <v type="int" >        1      116      159      165      166 </v>
   <v type="int" >        1      110      111      117      160 </v>
   <v type="int" >        1      111      117      118      160 </v>
   <v type="int" >        1      117      118      160      167 </v>
   <v type="int" >        1      110      117      159      160 </v>
   <v type="int" >        1      117      159      160      166 </v>
   <v type="int" >        1      117      160      166      167 </v>
   <v type="int" >        1      111      112      118      161 </v>
   <v type="int" >        1      112      118      119      161 </v>
   <v type="int" >        1      118      119      161      168 </v>
   <v type="int" >        1      111      118      160      161 </v>
   <v type="int" >        1      118      160      161      167 </v>
   <v type="int" >        1      118      161      167      168 </v>
   <v type="int" >        1      106      112      119      155 </v>
   <v type="int" >        1      106      113      119      155 </v>
   <v type="int" >        1      113      119      155      162 </v>
   <v type="int" >        1      112      119      155      161 </v>
   <v type="int" >        1      119      155      161      168 </v>
   <v type="int" >        1      119      155      162      168 </v>
   <v type="int" >        1      113      114      120      163 </v>
   <v type="int" >        1      114      120      121      163 </v>
   <v type="int" >        1      120      121      163      170 </v>
   <v type="int" >        1      113      120      162      163 </v>
   <v type="int" >        1      120      162      163      169 </v>
   <v type="int" >        1      120      163      169      170 </v>
   <v type="int" >        1      114      115      121      164 </v>
   <v type="int" >        1      115      121      122      164 </v>
   <v type="int" >        1      121      122      164      171 </v>
   <v type="int" >        1      114      121      163      164 </v>
   <v type="int" >        1      121      163      164      170 </v>
   <v type="int" >        1      121      164      170      171 </v>
   <v type="int" >        1      115      116      122      165 </v>
   <v type="int" >        1      116      122      123      165 </v>
   <v type="int" >        1      122      123      165      172 </v>
   <v type="int" >        1      115      122      164      165 </v>
   <v type="int" >        1      122      164      165      171 </v>
   <v type="int" >        1      122      165      171      172 </v>
   <v type="int" >        1      116      117      123      166 </v>
   <v type="int" >        1      117      123      124      166 </v>
   <v type="int" >        1      123      124      166      173 </v>
   <v type="int" >        1      116      123      165      166 </v>
   <v type="int" >        1      123      165      166      172 </v>
   <v type="int" >        1      123      166      172      173 </v>
   <v type="int" >        1      117      118      124      167 </v>
   <v type="int" >        1      118      124      125      167 </v>
   <v type="int" >        1      124      125      167      174 </v>
   <v type="int" >        1      117      124      166      167 </v>
   <v type="int" >        1      124      166      167      173 </v>
   <v type="int" >        1      124      167      173      174 </v>
   <v type="int" >        1      118      119      125      168 </v>
   <v type="int" >        1      119      125      126      168 </v>
   <v type="int" >        1      125      126      168      175 </v>
   <v type="int" >        1      118      125      167      168 </v>
   <v type="int" >        1      125      167      168      174 </v>
   <v type="int" >        1      125      168      174      175 </v>
   <v type="int" >        1      113      119      126      162 </v>
   <v type="int" >        1      113      120      126      162 </v>
   <v type="int" >        1      120      126      162      169 </v>
   <v type="int" >        1      119      126      162      168 </v>
   <v type="int" >        1      126      162      168      175 </v>
   <v type="int" >        1      126      162      169      175 </v>
   <v type="int" >        1      120      121      127      170 </v>
   <v type="int" >        1      121      127      128      170 </v>
   <v type="int" >        1      127      128      170      177 </v>
   <v type="int" >        1      120      127      169      170 </v>
   <v type="int" >        1      127      169      170      176 </v>
   <v type="int" >        1      127      170      176      177 </v>
   <v type="int" >        1      121      122      128      171 </v>
   <v type="int" >        1      122      128      129      171 </v>
   <v type="int" >        1      128      129      171      178 </v>
   <v type="int" >        1      121      128      170      171 </v>
   <v type="int" >        1      128      170      171      177 </v>
   <v type="int" >        1      128      171      177      178 </v>
   <v type="int" >        1      122      123      129      172 </v>
   <v type="int" >        1      123      129      130      172 </v>
   <v type="int" >        1      129      130      172      179 </v>
   <v type="int" >        1      122      129      171      172 </v>
   <v type="int" >        1      129      171      172      178 </v>
   <v type="int" >        1      129      172      178      179 </v>
   <v type="int" >        1      123      124      130      173 </v>
   <v type="int" >        1      124      130      131      173 </v>
   <v type="int" >        1      130      131      173      180 </v>
   <v type="int" >        1      123      130      172      173 </v>
   <v type="int" >        1      130      172      173      179 </v>
   <v type="int" >        1      130      173      179      180 </v>
   <v type="int" >        1      124      125      131      174 </v>
   <v type="int" >        1      125      131      132      174 </v>
   <v type="int" >        1      131      132      174      181 </v>
   <v type="int" >        1      124      131      173      174 </v>
   <v type="int" >        1      131      173      174      180 </v>
   <v type="int" >        1      131      174      180      181 </v>
   <v type="int" >        1      125      126      132      175 </v>
   <v type="int" >        1      126      132      133      175 </v>
   <v type="int" >        1      132      133      175      182 </v>
   <v type="int" >        1      125      132      174      175 </v>
   <v type="int" >        1      132      174      175      181 </v>
   <v type="int" >        1      132      175      181      182 </v>
   <v type="int" >        1      120      126      133      169 </v>
   <v type="int" >        1      120      127      133      169 </v>
   <v type="int" >        1      127      133      169      176 </v>
   <v type="int" >        1      126      133      169      175 </v>
   <v type="int" >        1      133      169      175      182 </v>
   <v type="int" >        1      133      169      176      182 </v>
   <v type="int" >        1      127      128      134      177 </v>
   <v type="int" >        1      128      134      135      177 </v>
   <v type="int" >        1      134      135      177      184 </v>
   <v type="int" >        1      127      134      176      177 </v>
   <v type="int" >        1      134      176      177      183 </v>
   <v type="int" >        1      134      177      183      184 </v>
   <v type="int" >        1      128      129      135      178 </v>
   <v type="int" >        1      129      135      136      178 </v>
   <v type="int" >        1      135      136      178      185 </v>
   <v type="int" >        1      128      135      177      178 </v>
   <v type="int" >        1      135      177      178      184 </v>
   <v type="int" >        1      135      178      184      185 </v>
   <v type="int" >        1      129      130      136      179 </v>
   <v type="int" >        1      130      136      137      179 </v>
   <v type="int" >        1      136      137      179      186 </v>
   <v type="int" >        1      129      136      178      179 </v>
   <v type="int" >        1      136      178      179      185 </v>
   <v type="int" >        1      136      179      185      186 </v>
   <v type="int" >        1      130      131      137      180 </v>
   <v type="int" >        1      131      137      138      180 </v>
   <v type="int" >        1      137      138      180      187 </v>
   <v type="int" >        1      130      137      179      180 </v>
   <v type="int" >        1      137      179      180      186 </v>
   <v type="int" >        1      137      180      186      187 </v>
   <v type="int" >        1      131      132      138      181 </v>
   <v type="int" >        1      132      138      139      181 </v>
   <v type="int" >        1      138      139      181      188 </v>
   <v type="int" >        1      131      138      180      181 </v>
[...]
        <r>  0.0010  0.0104  0.1714  0.0304  0.0002  0.0046  0.0002  0.0039  0.0012 </r>
        <r>  0.0046  0.0052  0.0650  0.0922  0.0011  0.0033  0.0008  0.0013  0.0029 </r>
       </set>
       <set comment="band 12">
        <r>  0.0067  0.0156  0.0929  0.0953  0.0019  0.0017  0.0001  0.0013  0.0008 </r>
        <r>  0.0134  0.0464  0.0160  0.0810  0.0010  0.0008  0.0018  0.0009  0.0032 </r>
        <r>  0.0084  0.0262  0.0954  0.0647  0.0026  0.0012  0.0005  0.0040  0.0021 </r>
       </set>
       <set comment="band 13">
        <r>  0.0017  0.0062  0.0085  0.0120  0.0032  0.0065  0.0159  0.0035  0.0158 </r>
        <r>  0.0002  0.0006  0.0029  0.0149  0.0012  0.0046  0.0179  0.0031  0.0185 </r>
        <r>  0.0009  0.0001  0.0005  0.0099  0.0030  0.0098  0.0157  0.0006  0.0176 </r>
       </set>
       <set comment="band 14">
        <r>  0.0033  0.0012  0.0058  0.0023  0.0190  0.0024  0.0159  0.0057  0.0104 </r>
        <r>  0.0013  0.0056  0.0130  0.0017  0.0094  0.0094  0.0121  0.0058  0.0075 </r>
        <r>  0.0008  0.0146  0.0200  0.0004  0.0065  0.0012  0.0185  0.0107  0.0078 </r>
       </set>
      </set>
      <set comment="kpoint 242">
       <set comment="band 1">
        <r>  0.1846  0.0041  0.0006  0.0017  0.0000  0.0001  0.0001  0.0001  0.0000 </r>
        <r>  0.2398  0.0029  0.0004  0.0006  0.0002  0.0001  0.0001  0.0002  0.0000 </r>
        <r>  0.2062  0.0010  0.0007  0.0039  0.0000  0.0001  0.0001  0.0001  0.0000 </r>
       </set>
       <set comment="band 2">
        <r>  0.3033  0.0001  0.0034  0.0012  0.0001  0.0004  0.0000  0.0004  0.0001 </r>
        <r>  0.1266  0.0009  0.0072  0.0034  0.0000  0.0005  0.0000  0.0001  0.0001 </r>
        <r>  0.2381  0.0013  0.0046  0.0016  0.0001  0.0002  0.0000  0.0006  0.0001 </r>
       </set>
       <set comment="band 3">
        <r>  0.1715  0.0025  0.0037  0.0036  0.0000  0.0005  0.0000  0.0001  0.0002 </r>
        <r>  0.2999  0.0023  0.0014  0.0020  0.0000  0.0001  0.0000  0.0001  0.0000 </r>
        <r>  0.2159  0.0003  0.0031  0.0040  0.0001  0.0001  0.0000  0.0002  0.0001 </r>
       </set>
       <set comment="band 4">
        <r>  0.0003  0.0711  0.0832  0.0048  0.0002  0.0006  0.0002  0.0002  0.0003 </r>
        <r>  0.0047  0.0597  0.0732  0.0029  0.0003  0.0009  0.0001  0.0001  0.0005 </r>
        <r>  0.0065  0.0763  0.0093  0.0306  0.0003  0.0000  0.0004  0.0000  0.0000 </r>
       </set>
       <set comment="band 5">
        <r>  0.0106  0.0525  0.0606  0.0671  0.0005  0.0001  0.0001  0.0006  0.0000 </r>
        <r>  0.0031  0.0160  0.0300  0.0449  0.0006  0.0001  0.0002  0.0021  0.0004 </r>
        <r>  0.0059  0.0186  0.1388  0.0064  0.0005  0.0001  0.0001  0.0033  0.0000 </r>
       </set>
       <set comment="band 6">
        <r>  0.0181  0.0143  0.0002  0.0025  0.0004  0.0008  0.0008  0.0024  0.0000 </r>
        <r>  0.0082  0.1082  0.0653  0.0123  0.0000  0.0013  0.0006  0.0003  0.0001 </r>
        <r>  0.0005  0.0142  0.0267  0.1655  0.0001  0.0001  0.0001  0.0008  0.0009 </r>
       </set>
       <set comment="band 7">
        <r>  0.0106  0.0214  0.0215  0.0608  0.0006  0.0003  0.0003  0.0013  0.0004 </r>
        <r>  0.0096  0.0151  0.0286  0.1591  0.0005  0.0008  0.0004  0.0003  0.0000 </r>
        <r>  0.0222  0.0281  0.0291  0.0501  0.0001  0.0011  0.0009  0.0006  0.0000 </r>
       </set>
       <set comment="band 8">
        <r>  0.0041  0.0450  0.0859  0.1693  0.0001  0.0000  0.0000  0.0002  0.0004 </r>
        <r>  0.0118  0.0040  0.0219  0.0670  0.0012  0.0001  0.0002  0.0015  0.0003 </r>
        <r>  0.0202  0.0103  0.0178  0.0083  0.0010  0.0014  0.0001  0.0019  0.0005 </r>
       </set>
       <set comment="band 9">
        <r>  0.0193  0.0290  0.0067  0.0004  0.0001  0.0073  0.0013  0.0001  0.0007 </r>
        <r>  0.0090  0.1025  0.0421  0.0105  0.0010  0.0017  0.0004  0.0008  0.0010 </r>
        <r>  0.0002  0.2483  0.0652  0.0009  0.0004  0.0001  0.0001  0.0001  0.0001 </r>
       </set>
       <set comment="band 10">
        <r>  0.0066  0.1928  0.0745  0.0043  0.0002  0.0026  0.0005  0.0001  0.0005 </r>
        <r>  0.0214  0.0887  0.0690  0.0076  0.0001  0.0073  0.0016  0.0002  0.0014 </r>
        <r>  0.0138  0.0127  0.0093  0.0052  0.0030  0.0058  0.0008  0.0002  0.0011 </r>
       </set>
       <set comment="band 11">
        <r>  0.0006  0.0096  0.0647  0.0597  0.0021  0.0001  0.0008  0.0008  0.0043 </r>
        <r>  0.0029  0.0265  0.1026  0.0603  0.0009  0.0015  0.0020  0.0048  0.0011 </r>
        <r>  0.0026  0.0155  0.0901  0.1206  0.0004  0.0018  0.0011  0.0012  0.0011 </r>
       </set>
       <set comment="band 12">
        <r>  0.0021  0.0340  0.0850  0.0918  0.0009  0.0004  0.0002  0.0017  0.0002 </r>
        <r>  0.0023  0.0392  0.0497  0.1091  0.0000  0.0007  0.0016  0.0002  0.0023 </r>
        <r>  0.0025  0.0213  0.1099  0.0939  0.0009  0.0011  0.0019  0.0018  0.0023 </r>
       </set>
       <set comment="band 13">
        <r>  0.0037  0.0020  0.0045  0.0074  0.0169  0.0025  0.0106  0.0071  0.0033 </r>
        <r>  0.0004  0.0084  0.0087  0.0135  0.0128  0.0055  0.0147  0.0019  0.0016 </r>
        <r>  0.0012  0.0219  0.0014  0.0081  0.0140  0.0057  0.0090  0.0076  0.0122 </r>
       </set>
       <set comment="band 14">
        <r>  0.0005  0.0083  0.0052  0.0457  0.0028  0.0082  0.0108  0.0031  0.0234 </r>
        <r>  0.0004  0.0045  0.0096  0.0158  0.0003  0.0058  0.0055  0.0085  0.0251 </r>
        <r>  0.0029  0.0040  0.0019  0.0107  0.0004  0.0052  0.0154  0.0008  0.0159 </r>
       </set>
      </set>
      <set comment="kpoint 243">
       <set comment="band 1">
        <r>  0.1879  0.0047  0.0006  0.0023  0.0000  0.0001  0.0001  0.0002  0.0000 </r>
        <r>  0.2711  0.0025  0.0004  0.0013  0.0002  0.0002  0.0001  0.0002  0.0001 </r>
        <r>  0.1861  0.0005  0.0006  0.0065  0.0000  0.0001  0.0001  0.0002  0.0000 </r>
       </set>
       <set comment="band 2">
        <r>  0.2917  0.0000  0.0018  0.0018  0.0001  0.0004  0.0000  0.0003  0.0001 </r>
        <r>  0.0721  0.0019  0.0060  0.0049  0.0001  0.0004  0.0000  0.0002  0.0001 </r>
        <r>  0.2978  0.0013  0.0018  0.0009  0.0002  0.0001  0.0000  0.0006  0.0000 </r>
       </set>
       <set comment="band 3">
        <r>  0.1840  0.0009  0.0031  0.0048  0.0001  0.0005  0.0000  0.0002  0.0002 </r>
        <r>  0.3261  0.0016  0.0001  0.0003  0.0001  0.0000  0.0000  0.0001  0.0000 </r>
        <r>  0.1791  0.0008  0.0032  0.0043  0.0002  0.0002  0.0000  0.0005  0.0001 </r>
       </set>
       <set comment="band 4">
        <r>  0.0073  0.0292  0.0754  0.0348  0.0001  0.0003  0.0001  0.0005  0.0001 </r>
        <r>  0.0012  0.0149  0.0295  0.0629  0.0001  0.0004  0.0001  0.0007  0.0004 </r>
        <r>  0.0070  0.0390  0.0409  0.0626  0.0000  0.0000  0.0001  0.0008  0.0001 </r>
       </set>
       <set comment="band 5">
        <r>  0.0030  0.0803  0.0568  0.0309  0.0007  0.0004  0.0000  0.0001  0.0001 </r>
        <r>  0.0025  0.0330  0.0826  0.0215  0.0003  0.0012  0.0000  0.0007  0.0001 </r>
        <r>  0.0007  0.0241  0.0896  0.0117  0.0007  0.0002  0.0002  0.0005  0.0000 </r>
       </set>
       <set comment="band 6">
        <r>  0.0066  0.0172  0.0020  0.0073  0.0005  0.0001  0.0004  0.0023  0.0001 </r>
        <r>  0.0128  0.1278  0.0555  0.0222  0.0002  0.0006  0.0003  0.0008  0.0001 </r>
        <r>  0.0027  0.0635  0.0419  0.1022  0.0001  0.0000  0.0001  0.0011  0.0004 </r>
       </set>
       <set comment="band 7">
        <r>  0.0056  0.0502  0.0503  0.1426  0.0004  0.0008  0.0003  0.0009  0.0003 </r>
        <r>  0.0141  0.0202  0.0393  0.0399  0.0010  0.0011  0.0006  0.0001  0.0001 </r>
        <r>  0.0189  0.0123  0.0056  0.0336  0.0007  0.0013  0.0007  0.0024  0.0000 </r>
       </set>
       <set comment="band 8">
        <r>  0.0166  0.0277  0.0673  0.0661  0.0002  0.0010  0.0006  0.0011  0.0001 </r>
        <r>  0.0011  0.0193  0.0123  0.1288  0.0007  0.0009  0.0003  0.0021  0.0002 </r>
        <r>  0.0226  0.0095  0.0528  0.0334  0.0002  0.0017  0.0006  0.0024  0.0000 </r>
       </set>
       <set comment="band 9">
        <r>  0.0174  0.0401  0.0067  0.0011  0.0001  0.0065  0.0011  0.0002  0.0006 </r>
        <r>  0.0105  0.0945  0.0449  0.0127  0.0011  0.0014  0.0004  0.0009  0.0011 </r>
        <r>  0.0004  0.2348  0.0557  0.0026  0.0006  0.0004  0.0004  0.0000  0.0002 </r>
       </set>
       <set comment="band 10">
        <r>  0.0067  0.1755  0.0774  0.0011  0.0004  0.0026  0.0005  0.0001  0.0004 </r>
        <r>  0.0222  0.0805  0.0803  0.0044  0.0003  0.0074  0.0010  0.0004  0.0019 </r>
        <r>  0.0118  0.0245  0.0158  0.0030  0.0035  0.0058  0.0005  0.0001  0.0021 </r>
       </set>
       <set comment="band 11">
        <r>  0.0012  0.0227  0.0648  0.0542  0.0061  0.0005  0.0024  0.0018  0.0033 </r>
        <r>  0.0065  0.0222  0.0814  0.0662  0.0029  0.0018  0.0037  0.0042  0.0015 </r>
        <r>  0.0030  0.0150  0.0834  0.1003  0.0005  0.0015  0.0015  0.0011  0.0000 </r>
       </set>
       <set comment="band 12">
        <r>  0.0084  0.0325  0.0841  0.0984  0.0002  0.0021  0.0002  0.0033  0.0000 </r>
        <r>  0.0006  0.0411  0.0529  0.0839  0.0014  0.0014  0.0008  0.0029  0.0001 </r>
        <r>  0.0049  0.0201  0.1027  0.0969  0.0010  0.0009  0.0017  0.0038  0.0003 </r>
       </set>
       <set comment="band 13">
        <r>  0.0013  0.0028  0.0081  0.0205  0.0137  0.0006  0.0079  0.0067  0.0050 </r>
        <r>  0.0002  0.0176  0.0143  0.0140  0.0129  0.0038  0.0101  0.0027  0.0024 </r>
        <r>  0.0006  0.0289  0.0117  0.0258  0.0168  0.0073  0.0103  0.0032  0.0062 </r>
       </set>
       <set comment="band 14">
        <r>  0.0027  0.0095  0.0015  0.0397  0.0035  0.0117  0.0039  0.0060  0.0230 </r>
        <r>  0.0001  0.0077  0.0127  0.0137  0.0109  0.0059  0.0042  0.0182  0.0105 </r>
        <r>  0.0020  0.0133  0.0021  0.0325  0.0055  0.0087  0.0002  0.0044  0.0245 </r>
       </set>
      </set>
      <set comment="kpoint 244">
       <set comment="band 1">
        <r>  0.2103  0.0030  0.0006  0.0022  0.0001  0.0000  0.0001  0.0002  0.0000 </r>
        <r>  0.2357  0.0016  0.0008  0.0024  0.0001  0.0001  0.0001  0.0001  0.0001 </r>
        <r>  0.1839  0.0001  0.0006  0.0061  0.0000  0.0001  0.0001  0.0001  0.0000 </r>
       </set>
       <set comment="band 2">
        <r>  0.2174  0.0004  0.0043  0.0013  0.0001  0.0004  0.0000  0.0003  0.0001 </r>
        <r>  0.1576  0.0017  0.0063  0.0022  0.0002  0.0002  0.0000  0.0004  0.0001 </r>
        <r>  0.2880  0.0008  0.0033  0.0001  0.0002  0.0000  0.0000  0.0007  0.0000 </r>
       </set>
       <set comment="band 3">
        <r>  0.2407  0.0001  0.0033  0.0050  0.0001  0.0003  0.0000  0.0002  0.0001 </r>
        <r>  0.2740  0.0017  0.0010  0.0003  0.0001  0.0001  0.0000  0.0002  0.0000 </r>
        <r>  0.1929  0.0009  0.0034  0.0044  0.0002  0.0001  0.0000  0.0006  0.0000 </r>
       </set>
       <set comment="band 4">
        <r>  0.0042  0.0325  0.0558  0.0461  0.0004  0.0001  0.0003  0.0003  0.0000 </r>
        <r>  0.0057  0.0061  0.0222  0.0803  0.0000  0.0000  0.0003  0.0002  0.0001 </r>
        <r>  0.0024  0.0252  0.0558  0.0633  0.0002  0.0000  0.0003  0.0002  0.0001 </r>
       </set>
       <set comment="band 5">
        <r>  0.0011  0.0516  0.0758  0.0199  0.0006  0.0008  0.0002  0.0002  0.0002 </r>
        <r>  0.0008  0.0123  0.1212  0.0220  0.0002  0.0022  0.0001  0.0007  0.0003 </r>
        <r>  0.0024  0.0069  0.0898  0.0537  0.0005  0.0003  0.0002  0.0003  0.0001 </r>
       </set>
       <set comment="band 6">
        <r>  0.0049  0.0586  0.0070  0.0216  0.0001  0.0001  0.0003  0.0017  0.0002 </r>
        <r>  0.0092  0.1603  0.0077  0.0282  0.0003  0.0000  0.0004  0.0008  0.0000 </r>
        <r>  0.0068  0.0858  0.0148  0.0527  0.0003  0.0000  0.0003  0.0009  0.0002 </r>
       </set>
       <set comment="band 7">
        <r>  0.0045  0.0444  0.0606  0.1541  0.0008  0.0004  0.0002  0.0006  0.0002 </r>
        <r>  0.0147  0.0218  0.0472  0.0269  0.0013  0.0009  0.0004  0.0007  0.0001 </r>
        <r>  0.0161  0.0163  0.0044  0.0224  0.0009  0.0016  0.0005  0.0026  0.0000 </r>
       </set>
       <set comment="band 8">
        <r>  0.0169  0.0158  0.0395  0.0257  0.0007  0.0034  0.0005  0.0013  0.0002 </r>
        <r>  0.0023  0.0749  0.0104  0.0775  0.0011  0.0026  0.0005  0.0005  0.0009 </r>
        <r>  0.0191  0.0863  0.1030  0.0239  0.0000  0.0008  0.0003  0.0029  0.0001 </r>
       </set>
       <set comment="band 9">
        <r>  0.0157  0.0756  0.0168  0.0160  0.0002  0.0027  0.0009  0.0016  0.0007 </r>
        <r>  0.0103  0.0437  0.0571  0.0735  0.0006  0.0001  0.0001  0.0018  0.0006 </r>
        <r>  0.0032  0.1589  0.0136  0.0277  0.0007  0.0014  0.0010  0.0014  0.0004 </r>
       </set>
       <set comment="band 10">
        <r>  0.0125  0.1633  0.0496  0.0047  0.0005  0.0017  0.0010  0.0009  0.0002 </r>
        <r>  0.0245  0.0646  0.0951  0.0217  0.0000  0.0040  0.0008  0.0009  0.0020 </r>
        <r>  0.0071  0.0421  0.0210  0.0157  0.0029  0.0039  0.0009  0.0006  0.0024 </r>
       </set>
       <set comment="band 11">
        <r>  0.0064  0.0282  0.1468  0.0446  0.0026  0.0050  0.0003  0.0023  0.0002 </r>
        <r>  0.0041  0.0525  0.0147  0.0499  0.0021  0.0045  0.0007  0.0022  0.0006 </r>
        <r>  0.0152  0.0168  0.0763  0.1043  0.0014  0.0015  0.0003  0.0023  0.0003 </r>
       </set>
       <set comment="band 12">
        <r>  0.0099  0.0128  0.0232  0.1067  0.0053  0.0010  0.0024  0.0020  0.0015 </r>
        <r>  0.0059  0.0277  0.0946  0.0553  0.0043  0.0017  0.0025  0.0049  0.0011 </r>
        <r>  0.0029  0.0269  0.0920  0.0708  0.0010  0.0004  0.0008  0.0027  0.0005 </r>
       </set>
       <set comment="band 13">
        <r>  0.0009  0.0051  0.0081  0.0142  0.0120  0.0004  0.0089  0.0080  0.0078 </r>
        <r>  0.0008  0.0167  0.0073  0.0089  0.0144  0.0026  0.0107  0.0055  0.0032 </r>
        <r>  0.0015  0.0205  0.0129  0.0284  0.0188  0.0090  0.0117  0.0017  0.0023 </r>
       </set>
       <set comment="band 14">
        <r>  0.0016  0.0038  0.0009  0.0108  0.0121  0.0015  0.0181  0.0088  0.0095 </r>
        <r>  0.0008  0.0088  0.0088  0.0086  0.0154  0.0022  0.0151  0.0098  0.0022 </r>
        <r>  0.0035  0.0049  0.0026  0.0124  0.0205  0.0066  0.0119  0.0016  0.0101 </r>
       </set>
      </set>
      <set comment="kpoint 245">
       <set comment="band 1">
        <r>  0.2120  0.0016  0.0006  0.0013  0.0001  0.0000  0.0000  0.0002  0.0000 </r>
        <r>  0.2084  0.0012  0.0009  0.0018  0.0000  0.0001  0.0000  0.0001  0.0000 </r>
        <r>  0.1934  0.0000  0.0007  0.0038  0.0000  0.0001  0.0000  0.0001  0.0000 </r>
       </set>
       <set comment="band 2">
        <r>  0.1945  0.0005  0.0082  0.0011  0.0001  0.0003  0.0000  0.0002  0.0001 </r>
        <r>  0.2098  0.0010  0.0081  0.0008  0.0001  0.0002  0.0000  0.0004  0.0001 </r>
        <r>  0.2468  0.0005  0.0067  0.0004  0.0002  0.0000  0.0000  0.0006  0.0000 </r>
       </set>
       <set comment="band 3">
        <r>  0.2572  0.0001  0.0050  0.0037  0.0001  0.0002  0.0000  0.0002  0.0001 </r>
        <r>  0.2403  0.0015  0.0042  0.0007  0.0001  0.0001  0.0000  0.0002  0.0000 </r>
        <r>  0.2196  0.0006  0.0058  0.0033  0.0002  0.0000  0.0000  0.0004  0.0000 </r>
       </set>
       <set comment="band 4">
        <r>  0.0055  0.0277  0.0821  0.0273  0.0007  0.0002  0.0001  0.0003  0.0001 </r>
        <r>  0.0131  0.0011  0.0160  0.0986  0.0003  0.0001  0.0009  0.0002  0.0001 </r>
        <r>  0.0034  0.0247  0.0534  0.0825  0.0007  0.0001  0.0005  0.0008  0.0002 </r>
       </set>
       <set comment="band 5">
        <r>  0.0056  0.0367  0.0311  0.0540  0.0005  0.0004  0.0007  0.0005  0.0003 </r>
        <r>  0.0048  0.0082  0.1253  0.0241  0.0000  0.0018  0.0001  0.0008  0.0003 </r>
        <r>  0.0034  0.0087  0.0938  0.0696  0.0001  0.0003  0.0006  0.0003  0.0002 </r>
       </set>
       <set comment="band 6">
        <r>  0.0037  0.1113  0.0296  0.0270  0.0002  0.0013  0.0002  0.0008  0.0006 </r>
        <r>  0.0075  0.1967  0.0107  0.0138  0.0004  0.0006  0.0003  0.0004  0.0001 </r>
        <r>  0.0189  0.0494  0.0029  0.0189  0.0005  0.0000  0.0001  0.0004  0.0004 </r>
       </set>
       <set comment="band 7">
        <r>  0.0072  0.0355  0.0625  0.1482  0.0008  0.0003  0.0003  0.0010  0.0003 </r>
        <r>  0.0145  0.0361  0.0464  0.0192  0.0013  0.0009  0.0005  0.0012  0.0001 </r>
        <r>  0.0115  0.0264  0.0045  0.0386  0.0009  0.0012  0.0004  0.0026  0.0003 </r>
       </set>
       <set comment="band 8">
        <r>  0.0183  0.0511  0.0085  0.0079  0.0008  0.0013  0.0004  0.0001  0.0011 </r>
        <r>  0.0146  0.0371  0.0146  0.0013  0.0010  0.0017  0.0002  0.0000  0.0017 </r>
        <r>  0.0019  0.2404  0.0990  0.0000  0.0002  0.0003  0.0002  0.0001  0.0006 </r>
       </set>
       <set comment="band 9">
        <r>  0.0091  0.0396  0.0412  0.0471  0.0015  0.0016  0.0003  0.0011  0.0001 </r>
        <r>  0.0022  0.0422  0.0733  0.2180  0.0002  0.0001  0.0000  0.0000  0.0001 </r>
        <r>  0.0204  0.0160  0.0094  0.0353  0.0008  0.0020  0.0009  0.0034  0.0002 </r>
       </set>
       <set comment="band 10">
        <r>  0.0189  0.1392  0.0235  0.0340  0.0003  0.0002  0.0021  0.0035  0.0001 </r>
        <r>  0.0143  0.0568  0.0115  0.0051  0.0005  0.0019  0.0010  0.0026  0.0010 </r>
        <r>  0.0078  0.0747  0.0311  0.1059  0.0005  0.0009  0.0005  0.0025  0.0006 </r>
       </set>
       <set comment="band 11">
        <r>  0.0010  0.0310  0.1714  0.0099  0.0006  0.0077  0.0002  0.0008  0.0009 </r>
        <r>  0.0046  0.0885  0.0650  0.0089  0.0021  0.0036  0.0008  0.0010  0.0019 </r>
        <r>  0.0078  0.0100  0.0749  0.0462  0.0032  0.0013  0.0011  0.0000  0.0013 </r>
       </set>
       <set comment="band 12">
        <r>  0.0134  0.0193  0.0160  0.1082  0.0041  0.0003  0.0018  0.0015  0.0000 </r>
        <r>  0.0084  0.0194  0.0954  0.0715  0.0036  0.0021  0.0005  0.0031  0.0010 </r>
        <r>  0.0067  0.0421  0.0929  0.0688  0.0017  0.0001  0.0001  0.0029  0.0010 </r>
       </set>
       <set comment="band 13">
        <r>  0.0002  0.0099  0.0029  0.0056  0.0110  0.0003  0.0179  0.0073  0.0087 </r>
        <r>  0.0009  0.0085  0.0005  0.0016  0.0167  0.0015  0.0157  0.0090  0.0039 </r>
        <r>  0.0017  0.0048  0.0085  0.0134  0.0187  0.0083  0.0159  0.0016  0.0003 </r>
       </set>
       <set comment="band 14">
        <r>  0.0013  0.0007  0.0130  0.0067  0.0105  0.0031  0.0121  0.0122  0.0064 </r>
        <r>  0.0008  0.0031  0.0200  0.0119  0.0135  0.0066  0.0185  0.0053  0.0007 </r>
        <r>  0.0033  0.0006  0.0058  0.0029  0.0176  0.0049  0.0159  0.0032  0.0118 </r>
       </set>
      </set>
     </set>
    </set>
   </array>
  </projected>
 </calculation>
 <structure name="finalpos" >
  <crystal>
   <varray name="basis" >
    <v>       2.25932030      -3.91325756      -0.00000000 </v>
    <v>       2.25932030       3.91325756       0.00000000 </v>
    <v>      -0.00000000       0.00000000       5.95319668 </v>
   </varray>
   <i name="volume">    105.26802254 </i>
   <varray name="rec_basis" >
    <v>       0.22130550      -0.12777079       0.00000000 </v>
    <v>       0.22130550       0.12777079       0.00000000 </v>
    <v>       0.00000000      -0.00000000       0.16797698 </v>
   </varray>
  </crystal>
  <varray name="positions" >
   <v>       0.26862376       0.00000000       0.16666667 </v>
   <v>       0.00000000       0.26862376       0.83333333 </v>
   <v>       0.73137624       0.73137624       0.50000000 </v>
  </varray>
  <varray name="selective"  type="logical" >
   <v type="logical" >  T  T  T </v>
   <v type="logical" >  T  T  T </v>
   <v type="logical" >  T  T  T </v>
  </varray>
  <nose>
   <v>      -3.00000000       0.00000000       0.00010000       0.00010000 </v>
  </nose>
 </structure>
</modeling>
