   3   3   0   0
  0.3376594E+02  0.4446930E-09  0.4446930E-09  0.5914920E-09  0.5000000E-15
   1.0000000000000000E-004
  CAR 
 Te-a                                    
     13.52375941     -8.86118284  301      5.61907668      1.00000000
     -8.861  0.0000E+00  0.0000E+00
     -8.787  0.0000E+00  0.0000E+00
     -8.712  0.0000E+00  0.0000E+00
     -8.637  0.0000E+00  0.0000E+00
     -8.563  0.0000E+00  0.0000E+00
     -8.488  0.0000E+00  0.0000E+00
     -8.413  0.0000E+00  0.0000E+00
     -8.339  0.0000E+00  0.0000E+00
     -8.264  0.0000E+00  0.0000E+00
     -8.190  0.0000E+00  0.0000E+00
     -8.115  0.1822E-15  0.1359E-16
     -8.040  0.2885E-09  0.2153E-10
     -7.966  0.6054E-05  0.4517E-06
     -7.891  0.1955E-02  0.1463E-03
     -7.817  0.1536E-01  0.1293E-02
     -7.742  0.3933E-01  0.4227E-02
     -7.667  0.1231E+00  0.1341E-01
     -7.593  0.1047E+00  0.2122E-01
     -7.518  0.1751E+00  0.3429E-01
     -7.443  0.1048E+00  0.4210E-01
     -7.369  0.1370E+00  0.5233E-01
     -7.294  0.2872E+00  0.7376E-01
     -7.220  0.2351E+00  0.9130E-01
     -7.145  0.2754E+00  0.1119E+00
     -7.070  0.1795E+00  0.1253E+00
     -6.996  0.2474E+00  0.1437E+00
     -6.921  0.6712E+00  0.1938E+00
     -6.847  0.4527E+00  0.2276E+00
     -6.772  0.3735E+00  0.2554E+00
     -6.697  0.3224E+00  0.2795E+00
     -6.623  0.5852E+00  0.3232E+00
     -6.548  0.4772E+00  0.3588E+00
     -6.473  0.3537E+00  0.3852E+00
     -6.399  0.3073E+00  0.4081E+00
     -6.324  0.4249E+00  0.4398E+00
     -6.250  0.2091E+00  0.4554E+00
     -6.175  0.1038E+00  0.4631E+00
     -6.100  0.2219E+00  0.4797E+00
     -6.026  0.3456E+00  0.5055E+00
     -5.951  0.3224E+00  0.5295E+00
     -5.877  0.3834E+00  0.5581E+00
     -5.802  0.2533E-01  0.5600E+00
     -5.727  0.3138E-01  0.5624E+00
     -5.653  0.2286E+00  0.5794E+00
     -5.578  0.5164E+00  0.6180E+00
     -5.503  0.6658E+00  0.6677E+00
     -5.429  0.5962E+00  0.7121E+00
     -5.354  0.1442E+00  0.7229E+00
     -5.280  0.1862E+00  0.7368E+00
     -5.205  0.4212E-01  0.7399E+00
     -5.130  0.1205E+00  0.7489E+00
     -5.056  0.2350E+00  0.7665E+00
     -4.981  0.5963E-01  0.7709E+00
     -4.907  0.1295E+00  0.7806E+00
     -4.832  0.1610E+00  0.7926E+00
     -4.757  0.1017E+00  0.8002E+00
     -4.683  0.2260E+00  0.8170E+00
     -4.608  0.7147E+00  0.8704E+00
     -4.533  0.4565E+00  0.9044E+00
     -4.459  0.4756E+00  0.9399E+00
     -4.384  0.5713E+00  0.9825E+00
     -4.310  0.2928E+00  0.1004E+01
     -4.235  0.3526E+00  0.1031E+01
     -4.160  0.2435E+00  0.1049E+01
     -4.086  0.2965E+00  0.1071E+01
     -4.011  0.2565E+00  0.1090E+01
     -3.936  0.2897E+00  0.1112E+01
     -3.862  0.4501E-01  0.1115E+01
     -3.787  0.5342E-01  0.1119E+01
     -3.713  0.2657E+00  0.1139E+01
     -3.638  0.1738E+00  0.1152E+01
     -3.563  0.1031E+00  0.1160E+01
     -3.489  0.1878E+00  0.1174E+01
     -3.414  0.4704E-01  0.1177E+01
     -3.340  0.3271E-03  0.1177E+01
     -3.265  0.2086E-05  0.1177E+01
     -3.190  0.3027E-02  0.1177E+01
     -3.116  0.1023E+00  0.1185E+01
     -3.041  0.1471E+00  0.1196E+01
     -2.966  0.1019E-01  0.1197E+01
     -2.892  0.8570E-02  0.1197E+01
     -2.817  0.3058E-01  0.1200E+01
     -2.743  0.4544E-02  0.1200E+01
     -2.668  0.1654E-04  0.1200E+01
     -2.593  0.9368E-09  0.1200E+01
     -2.519  0.7045E-15  0.1200E+01
     -2.444  0.0000E+00  0.1200E+01
     -2.370  0.0000E+00  0.1200E+01
     -2.295  0.0000E+00  0.1200E+01
     -2.220  0.0000E+00  0.1200E+01
     -2.146  0.0000E+00  0.1200E+01
     -2.071  0.0000E+00  0.1200E+01
     -1.996  0.0000E+00  0.1200E+01
     -1.922  0.0000E+00  0.1200E+01
     -1.847  0.0000E+00  0.1200E+01
     -1.773  0.0000E+00  0.1200E+01
     -1.698  0.0000E+00  0.1200E+01
     -1.623  0.0000E+00  0.1200E+01
     -1.549  0.0000E+00  0.1200E+01
     -1.474  0.0000E+00  0.1200E+01
     -1.400  0.0000E+00  0.1200E+01
     -1.325  0.0000E+00  0.1200E+01
     -1.250  0.0000E+00  0.1200E+01
     -1.176  0.0000E+00  0.1200E+01
     -1.101  0.0000E+00  0.1200E+01
     -1.026  0.0000E+00  0.1200E+01
     -0.952  0.0000E+00  0.1200E+01
     -0.877  0.0000E+00  0.1200E+01
     -0.803  0.0000E+00  0.1200E+01
     -0.728  0.0000E+00  0.1200E+01
     -0.653  0.0000E+00  0.1200E+01
     -0.579  0.0000E+00  0.1200E+01
     -0.504  0.0000E+00  0.1200E+01
     -0.430  0.0000E+00  0.1200E+01
     -0.355  0.0000E+00  0.1200E+01
     -0.280  0.0000E+00  0.1200E+01
     -0.206  0.0000E+00  0.1200E+01
     -0.131  0.0000E+00  0.1200E+01
     -0.056  0.4849E-12  0.1200E+01
      0.018  0.1406E-06  0.1200E+01
      0.093  0.5621E-03  0.1200E+01
      0.167  0.3986E-01  0.1203E+01
      0.242  0.1517E+00  0.1214E+01
      0.317  0.2032E+00  0.1229E+01
      0.391  0.1119E+00  0.1238E+01
      0.466  0.6514E-01  0.1243E+01
      0.540  0.4287E+00  0.1275E+01
      0.615  0.3112E+00  0.1298E+01
      0.690  0.3790E+00  0.1326E+01
      0.764  0.4911E+00  0.1363E+01
      0.839  0.4355E+00  0.1395E+01
      0.914  0.2899E+00  0.1417E+01
      0.988  0.5627E+00  0.1459E+01
      1.063  0.4309E+00  0.1491E+01
      1.137  0.3528E+00  0.1517E+01
      1.212  0.1101E+01  0.1600E+01
      1.287  0.9217E+00  0.1668E+01
      1.361  0.9279E+00  0.1738E+01
      1.436  0.6728E+00  0.1788E+01
      1.511  0.2168E+00  0.1804E+01
      1.585  0.6409E-01  0.1809E+01
      1.660  0.3788E+00  0.1837E+01
      1.734  0.6102E+00  0.1883E+01
      1.809  0.4645E+00  0.1917E+01
      1.884  0.7684E+00  0.1975E+01
      1.958  0.7701E+00  0.2032E+01
      2.033  0.2458E+00  0.2050E+01
      2.107  0.2534E+00  0.2069E+01
      2.182  0.7633E+00  0.2126E+01
      2.257  0.5229E+00  0.2165E+01
      2.331  0.6820E+00  0.2216E+01
      2.406  0.6283E+00  0.2263E+01
      2.481  0.4812E+00  0.2299E+01
      2.555  0.2921E+00  0.2321E+01
      2.630  0.4331E+00  0.2353E+01
      2.704  0.5261E+00  0.2392E+01
      2.779  0.4624E+00  0.2427E+01
      2.854  0.4719E+00  0.2462E+01
      2.928  0.2597E+00  0.2481E+01
      3.003  0.2439E+00  0.2500E+01
      3.077  0.2571E+00  0.2519E+01
      3.152  0.3725E+00  0.2547E+01
      3.227  0.2660E+00  0.2566E+01
      3.301  0.3453E+00  0.2592E+01
      3.376  0.3692E+00  0.2620E+01
      3.451  0.2846E+00  0.2641E+01
      3.525  0.5224E+00  0.2680E+01
      3.600  0.7508E+00  0.2736E+01
      3.674  0.4378E+00  0.2769E+01
      3.749  0.3498E+00  0.2795E+01
      3.824  0.4248E+00  0.2826E+01
      3.898  0.6782E+00  0.2877E+01
      3.973  0.5643E+00  0.2919E+01
      4.047  0.5036E+00  0.2957E+01
      4.122  0.3187E+00  0.2980E+01
      4.197  0.6662E+00  0.3030E+01
      4.271  0.8507E+00  0.3094E+01
      4.346  0.6743E+00  0.3144E+01
      4.421  0.7958E+00  0.3203E+01
      4.495  0.5630E+00  0.3245E+01
      4.570  0.7511E+00  0.3301E+01
      4.644  0.5637E+00  0.3343E+01
      4.719  0.3839E+00  0.3372E+01
      4.794  0.5178E+00  0.3411E+01
      4.868  0.4338E+00  0.3443E+01
      4.943  0.3472E+00  0.3469E+01
      5.017  0.5599E+00  0.3511E+01
      5.092  0.4778E+00  0.3546E+01
      5.167  0.6307E-01  0.3551E+01
      5.241  0.1073E+00  0.3559E+01
      5.316  0.2360E+00  0.3577E+01
      5.391  0.2054E+00  0.3592E+01
      5.465  0.1033E+00  0.3600E+01
      5.540  0.2353E-02  0.3600E+01
      5.614  0.9908E-06  0.3600E+01
      5.689  0.5848E-11  0.3600E+01
      5.764  0.3362E-11  0.3600E+01
      5.838  0.3888E-06  0.3600E+01
      5.913  0.6388E-03  0.3600E+01
      5.987  0.2042E-01  0.3602E+01
      6.062  0.4012E-01  0.3605E+01
      6.137  0.1117E+00  0.3613E+01
      6.211  0.5872E+00  0.3657E+01
      6.286  0.6234E+00  0.3703E+01
      6.361  0.4774E+00  0.3739E+01
      6.435  0.7783E+00  0.3797E+01
      6.510  0.6928E+00  0.3849E+01
      6.584  0.6409E+00  0.3896E+01
      6.659  0.6343E+00  0.3944E+01
      6.734  0.3667E+00  0.3971E+01
      6.808  0.3195E+00  0.3995E+01
      6.883  0.6585E+00  0.4044E+01
      6.958  0.5981E+00  0.4089E+01
      7.032  0.5788E+00  0.4132E+01
      7.107  0.8009E+00  0.4192E+01
      7.181  0.5710E+00  0.4234E+01
      7.256  0.6159E+00  0.4280E+01
      7.331  0.8003E+00  0.4340E+01
      7.405  0.5878E+00  0.4384E+01
      7.480  0.3804E+00  0.4412E+01
      7.554  0.5196E+00  0.4451E+01
      7.629  0.2253E+00  0.4468E+01
      7.704  0.3171E+00  0.4491E+01
      7.778  0.6958E+00  0.4543E+01
      7.853  0.4756E+00  0.4579E+01
      7.928  0.5345E+00  0.4619E+01
      8.002  0.4465E+00  0.4652E+01
      8.077  0.1239E+00  0.4661E+01
      8.151  0.2349E-01  0.4663E+01
      8.226  0.1520E+00  0.4674E+01
      8.301  0.3546E+00  0.4701E+01
      8.375  0.3628E+00  0.4728E+01
      8.450  0.2477E+00  0.4746E+01
      8.524  0.7803E-01  0.4752E+01
      8.599  0.1771E+00  0.4765E+01
      8.674  0.1265E+00  0.4775E+01
      8.748  0.1516E+00  0.4786E+01
      8.823  0.5311E-01  0.4790E+01
      8.898  0.4165E-01  0.4793E+01
      8.972  0.2044E+00  0.4809E+01
      9.047  0.1702E+00  0.4821E+01
      9.121  0.1087E+00  0.4829E+01
      9.196  0.1297E+00  0.4839E+01
      9.271  0.1345E+00  0.4849E+01
      9.345  0.1390E+00  0.4859E+01
      9.420  0.2195E+00  0.4876E+01
      9.494  0.2349E+00  0.4893E+01
      9.569  0.2938E+00  0.4915E+01
      9.644  0.1145E+00  0.4924E+01
      9.718  0.1730E+00  0.4937E+01
      9.793  0.3076E+00  0.4960E+01
      9.868  0.4640E+00  0.4994E+01
      9.942  0.2724E+00  0.5015E+01
     10.017  0.3227E+00  0.5039E+01
     10.091  0.3720E+00  0.5066E+01
     10.166  0.6181E+00  0.5113E+01
     10.241  0.3302E+00  0.5137E+01
     10.315  0.3566E-01  0.5140E+01
     10.390  0.1894E+00  0.5154E+01
     10.464  0.4135E+00  0.5185E+01
     10.539  0.1160E+00  0.5193E+01
     10.614  0.1189E+00  0.5202E+01
     10.688  0.2831E+00  0.5223E+01
     10.763  0.3511E+00  0.5250E+01
     10.838  0.7264E+00  0.5304E+01
     10.912  0.8121E+00  0.5364E+01
     10.987  0.3237E+00  0.5389E+01
     11.061  0.2156E+00  0.5405E+01
     11.136  0.2071E+00  0.5420E+01
     11.211  0.1696E+00  0.5433E+01
     11.285  0.2190E+00  0.5449E+01
     11.360  0.2429E+00  0.5467E+01
     11.434  0.2336E+00  0.5485E+01
     11.509  0.2697E+00  0.5505E+01
     11.584  0.9260E-01  0.5512E+01
     11.658  0.4873E-01  0.5515E+01
     11.733  0.1925E+00  0.5530E+01
     11.808  0.1158E+00  0.5538E+01
     11.882  0.7461E-01  0.5544E+01
     11.957  0.9179E-01  0.5551E+01
     12.031  0.1180E+00  0.5560E+01
     12.106  0.2314E+00  0.5577E+01
     12.181  0.4683E-01  0.5580E+01
     12.255  0.3988E-03  0.5580E+01
     12.330  0.1787E-01  0.5582E+01
     12.405  0.9325E-01  0.5589E+01
     12.479  0.4902E-01  0.5592E+01
     12.554  0.9057E-01  0.5599E+01
     12.628  0.1173E-01  0.5600E+01
     12.703  0.3632E-04  0.5600E+01
     12.778  0.1731E-08  0.5600E+01
     12.852  0.1093E-14  0.5600E+01
     12.927  0.0000E+00  0.5600E+01
     13.001  0.0000E+00  0.5600E+01
     13.076  0.0000E+00  0.5600E+01
     13.151  0.0000E+00  0.5600E+01
     13.225  0.0000E+00  0.5600E+01
     13.300  0.0000E+00  0.5600E+01
     13.375  0.0000E+00  0.5600E+01
     13.449  0.0000E+00  0.5600E+01
     13.524  0.0000E+00  0.5600E+01
