    3    3    5    1
  0.3376594E+02  0.4446930E-09  0.4446930E-09  0.5914920E-09  0.5000000E-15
   1.0000000000000000E-004
  CAR 
 Te-a                                    
     18     32     14

  0.3742002E-15  0.3742002E-15  0.3742002E-15  0.4081633E-02
    1       -7.843685   1.000000
    2       -4.676820   1.000000
    3       -4.676820   1.000000
    4        2.554533   1.000000
    5        2.818022   1.000000
    6        2.818022   1.000000
    7        3.915404   1.000000
    8        3.915404   1.000000
    9        4.726105   1.000000
   10        6.524976   0.000000
   11        6.524976   0.000000
   12        7.078883   0.000000
   13       10.577182   0.000000
   14       10.577182   0.000000

  0.1428571E+00  0.3747003E-15  0.3742002E-15  0.2448980E-01
    1       -7.714467   1.000000
    2       -4.727212   1.000000
    3       -4.647961   1.000000
    4        1.739428   1.000000
    5        2.276947   1.000000
    6        2.580504   1.000000
    7        4.251771   1.000000
    8        4.570272   1.000000
    9        4.886158   1.000000
   10        6.256795   0.000000
   11        6.445219   0.000000
   12        6.948322   0.000000
   13       10.145421   0.000000
   14       10.542925   0.000000

  0.2857143E+00  0.3608225E-15  0.3742002E-15  0.2448980E-01
    1       -7.360393   1.000000
    2       -4.950752   1.000000
    3       -4.575026   1.000000
    4        1.003239   1.000000
    5        1.647924   1.000000
    6        2.160626   1.000000
    7        3.732718   1.000000
    8        4.593293   1.000000
    9        4.756125   1.000000
   10        6.377101   0.000000
   11        6.562454   0.000000
   12        7.702641   0.000000
   13        9.224502   0.000000
   14       11.082964   0.000000

  0.4285714E+00  0.3608225E-15  0.3742002E-15  0.2448980E-01
    1       -6.946426   1.000000
    2       -5.313925   1.000000
    3       -4.509142   1.000000
    4        0.887574   1.000000
    5        1.319373   1.000000
    6        1.985339   1.000000
    7        2.519616   1.000000
    8        4.569205   1.000000
    9        4.752137   1.000000
   10        6.384696   0.000000
   11        6.464065   0.000000
   12        8.681986   0.000000
   13        8.917970   0.000000
   14       12.368602   0.000000

  0.1428571E+00  0.1428571E+00  0.3742002E-15  0.2448980E-01
    1       -7.471372   1.000000
    2       -4.829637   1.000000
    3       -4.637785   1.000000
    4        1.237548   1.000000
    5        1.495428   1.000000
    6        2.659804   1.000000
    7        3.877873   1.000000
    8        4.518649   1.000000
    9        4.519260   1.000000
   10        6.637566   0.000000
   11        6.834106   0.000000
   12        7.183634   0.000000
   13        9.925236   0.000000
   14       10.087608   0.000000

  0.2857143E+00  0.1428571E+00  0.3742002E-15  0.4897959E-01
    1       -7.068274   1.000000
    2       -5.096390   1.000000
    3       -4.641715   1.000000
    4        0.961716   1.000000
    5        1.221659   1.000000
    6        2.286373   1.000000
    7        3.148235   1.000000
    8        3.851565   1.000000
    9        4.125928   1.000000
   10        7.055591   0.000000
   11        7.280743   0.000000
   12        8.235552   0.000000
   13        9.384783   0.000000
   14       10.794723   0.000000

  0.4285714E+00  0.1428571E+00  0.3742002E-15  0.2448980E-01
    1       -6.809917   1.000000
    2       -5.321191   1.000000
    3       -4.639125   1.000000
    4        1.001428   1.000000
    5        1.259702   1.000000
    6        2.195291   1.000000
    7        2.294852   1.000000
    8        3.868305   1.000000
    9        3.933277   1.000000
   10        7.094245   0.000000
   11        7.353873   0.000000
   12        8.967824   0.000000
   13        9.169592   0.000000
   14       12.018728   0.000000

  0.2857143E+00  0.2857143E+00  0.3742002E-15  0.2448980E-01
    1       -6.762250   1.000000
    2       -5.140834   1.000000
    3       -4.885335   1.000000
    4        1.172004   1.000000
    5        1.181209   1.000000
    6        2.377166   1.000000
    7        2.774614   1.000000
    8        3.021838   1.000000
    9        3.183793   1.000000
   10        7.956435   0.000000
   11        8.275007   0.000000
   12        8.444151   0.000000
   13       10.191234   0.000000
   14       10.765537   0.000000

  0.3742002E-15  0.3742002E-15  0.2000000E+00  0.8163265E-02
    1       -7.703697   1.000000
    2       -5.722648   1.000000
    3       -3.621023   1.000000
    4        2.315239   1.000000
    5        2.634779   1.000000
    6        3.063067   1.000000
    7        4.028255   1.000000
    8        4.053500   1.000000
    9        4.710155   1.000000
   10        6.283335   0.000000
   11        6.338875   0.000000
   12        6.723678   0.000000
   13       10.162646   0.000000
   14       11.181939   0.000000

  0.1428571E+00  0.3747003E-15  0.2000000E+00  0.2448980E-01
    1       -7.576365   1.000000
    2       -5.674494   1.000000
    3       -3.723107   1.000000
    4        1.869642   1.000000
    5        1.930563   1.000000
    6        2.694128   1.000000
    7        4.435423   1.000000
    8        4.593014   1.000000
    9        4.753289   1.000000
   10        6.164177   0.000000
   11        6.213511   0.000000
   12        6.897485   0.000000
   13        9.684684   0.000000
   14       11.295897   0.000000

  0.2857143E+00  0.3608225E-15  0.2000000E+00  0.2448980E-01
    1       -7.225702   1.000000
    2       -5.613521   1.000000
    3       -3.981030   1.000000
    4        0.842469   1.000000
    5        1.418474   1.000000
    6        2.264977   1.000000
    7        4.347905   1.000000
    8        4.482852   1.000000
    9        5.061797   1.000000
   10        6.191151   0.000000
   11        6.659494   0.000000
   12        6.902651   0.000000
   13        9.074733   0.000000
   14       11.788137   0.000000

  0.4285714E+00  0.3608225E-15  0.2000000E+00  0.2448980E-01
    1       -6.826511   1.000000
    2       -5.621980   1.000000
    3       -4.314265   1.000000
    4        0.524807   1.000000
    5        1.171678   1.000000
    6        2.029268   1.000000
    7        3.772301   1.000000
    8        4.197306   1.000000
    9        4.315619   1.000000
   10        6.543859   0.000000
   11        7.039120   0.000000
   12        7.909642   0.000000
   13        8.982758   0.000000
   14       12.506262   0.000000

 -0.4285714E+00  0.4163336E-15  0.2000000E+00  0.2448980E-01
    1       -6.853229   1.000000
    2       -5.474330   1.000000
    3       -4.506699   1.000000
    4        0.980174   1.000000
    5        1.236349   1.000000
    6        2.106678   1.000000
    7        2.847009   1.000000
    8        4.041532   1.000000
    9        4.278844   1.000000
   10        6.671949   0.000000
   11        7.255388   0.000000
   12        8.737354   0.000000
   13        9.315090   0.000000
   14       11.902417   0.000000

 -0.2857143E+00  0.3885781E-15  0.2000000E+00  0.2448980E-01
    1       -7.242361   1.000000
    2       -5.493587   1.000000
    3       -4.183255   1.000000
    4        1.377974   1.000000
    5        1.848607   1.000000
    6        2.468746   1.000000
    7        2.842560   1.000000
    8        3.974127   1.000000
    9        4.361936   1.000000
   10        6.783354   0.000000
   11        7.318543   0.000000
   12        8.243700   0.000000
   13        9.965868   0.000000
   14       10.948957   0.000000

 -0.1428571E+00  0.3747003E-15  0.2000000E+00  0.2448980E-01
    1       -7.578595   1.000000
    2       -5.657397   1.000000
    3       -3.760520   1.000000
    4        1.802667   1.000000
    5        2.424782   1.000000
    6        2.785670   1.000000
    7        3.884110   1.000000
    8        4.162602   1.000000
    9        4.371290   1.000000
   10        6.623023   0.000000
   11        6.720024   0.000000
   12        7.105402   0.000000
   13       10.203933   0.000000
   14       10.842904   0.000000

  0.1428571E+00  0.1428571E+00  0.2000000E+00  0.4897959E-01
    1       -7.341188   1.000000
    2       -5.579485   1.000000
    3       -3.978286   1.000000
    4        1.278275   1.000000
    5        1.645931   1.000000
    6        2.576089   1.000000
    7        3.516138   1.000000
    8        4.166891   1.000000
    9        5.050113   1.000000
   10        6.371828   0.000000
   11        6.949320   0.000000
   12        7.422162   0.000000
   13        9.784098   0.000000
   14       10.689050   0.000000

  0.2857143E+00  0.1428571E+00  0.2000000E+00  0.4897959E-01
    1       -6.945090   1.000000
    2       -5.559908   1.000000
    3       -4.279991   1.000000
    4        0.617409   1.000000
    5        1.319703   1.000000
    6        2.171461   1.000000
    7        3.116123   1.000000
    8        4.340796   1.000000
    9        4.793598   1.000000
   10        6.521149   0.000000
   11        7.231578   0.000000
   12        7.763117   0.000000
   13        9.486754   0.000000
   14       11.210906   0.000000

  0.4285714E+00  0.1428571E+00  0.2000000E+00  0.4897959E-01
    1       -6.709652   1.000000
    2       -5.533837   1.000000
    3       -4.539494   1.000000
    4        0.702845   1.000000
    5        1.071215   1.000000
    6        2.129523   1.000000
    7        2.983298   1.000000
    8        3.479059   1.000000
    9        4.859012   1.000000
   10        6.490349   0.000000
   11        7.754048   0.000000
   12        8.346421   0.000000
   13        9.527041   0.000000
   14       12.073162   0.000000

 -0.4285714E+00  0.1428571E+00  0.2000000E+00  0.4897959E-01
    1       -6.961431   1.000000
    2       -5.453507   1.000000
    3       -4.426879   1.000000
    4        0.958893   1.000000
    5        1.404664   1.000000
    6        2.332046   1.000000
    7        2.680953   1.000000
    8        3.588066   1.000000
    9        5.015013   1.000000
   10        6.425994   0.000000
   11        7.522227   0.000000
   12        8.577226   0.000000
   13        9.834794   0.000000
   14       10.847070   0.000000

  0.2857143E+00  0.2857143E+00  0.2000000E+00  0.4897959E-01
    1       -6.660823   1.000000
    2       -5.475907   1.000000
    3       -4.641339   1.000000
    4        0.682800   1.000000
    5        1.175364   1.000000
    6        1.910248   1.000000
    7        2.726650   1.000000
    8        3.773726   1.000000
    9        4.369057   1.000000
   10        7.303417   0.000000
   11        7.738775   0.000000
   12        8.373660   0.000000
   13       10.398819   0.000000
   14       10.834171   0.000000

  0.3742002E-15  0.3742002E-15  0.4000000E+00  0.8163265E-02
    1       -7.288802   1.000000
    2       -6.616459   1.000000
    3       -2.861722   1.000000
    4        1.838093   1.000000
    5        2.831107   1.000000
    6        3.021188   1.000000
    7        4.235797   1.000000
    8        4.365543   1.000000
    9        4.625918   1.000000
   10        5.989980   0.000000
   11        6.070638   0.000000
   12        6.154520   0.000000
   13        9.748722   0.000000
   14       10.802345   0.000000

  0.1428571E+00  0.3747003E-15  0.4000000E+00  0.2448980E-01
    1       -7.170377   1.000000
    2       -6.525759   1.000000
    3       -3.095571   1.000000
    4        1.657028   1.000000
    5        2.346202   1.000000
    6        2.821708   1.000000
    7        3.940237   1.000000
    8        4.224194   1.000000
    9        4.410370   1.000000
   10        6.239267   0.000000
   11        6.404816   0.000000
   12        7.139888   0.000000
   13        9.798116   0.000000
   14       10.694709   0.000000

  0.2857143E+00  0.3608225E-15  0.4000000E+00  0.2448980E-01
    1       -6.848426   1.000000
    2       -6.308900   1.000000
    3       -3.652536   1.000000
    4        0.835407   1.000000
    5        1.769995   1.000000
    6        2.441240   1.000000
    7        3.704701   1.000000
    8        3.898478   1.000000
    9        4.867890   1.000000
   10        6.601740   0.000000
   11        7.145654   0.000000
   12        7.275812   0.000000
   13        9.642431   0.000000
   14       11.457345   0.000000

  0.4285714E+00  0.3608225E-15  0.4000000E+00  0.2448980E-01
    1       -6.528874   1.000000
    2       -6.051740   1.000000
    3       -4.237291   1.000000
    4        0.185744   1.000000
    5        1.676297   1.000000
    6        2.184866   1.000000
    7        3.385092   1.000000
    8        3.677376   1.000000
    9        5.304131   1.000000
   10        6.392052   0.000000
   11        7.198036   0.000000
   12        7.839283   0.000000
   13        9.833541   0.000000
   14       11.309082   0.000000

 -0.4285714E+00  0.4163336E-15  0.4000000E+00  0.2448980E-01
    1       -6.579394   1.000000
    2       -5.951629   1.000000
    3       -4.330796   1.000000
    4        0.352657   1.000000
    5        1.824098   1.000000
    6        2.142114   1.000000
    7        3.303530   1.000000
    8        3.610394   1.000000
    9        4.406174   1.000000
   10        7.174492   0.000000
   11        7.519548   0.000000
   12        7.956061   0.000000
   13       10.131669   0.000000
   14       10.943456   0.000000

 -0.2857143E+00  0.3885781E-15  0.4000000E+00  0.2448980E-01
    1       -6.885999   1.000000
    2       -6.238203   1.000000
    3       -3.750453   1.000000
    4        1.170390   1.000000
    5        2.163715   1.000000
    6        2.363484   1.000000
    7        3.417730   1.000000
    8        3.467116   1.000000
    9        4.024687   1.000000
   10        7.070517   0.000000
   11        7.569637   0.000000
   12        8.041181   0.000000
   13       10.400432   0.000000
   14       10.926584   0.000000

 -0.1428571E+00  0.3747003E-15  0.4000000E+00  0.2448980E-01
    1       -7.175530   1.000000
    2       -6.516081   1.000000
    3       -3.117274   1.000000
    4        1.732989   1.000000
    5        2.625160   1.000000
    6        2.888498   1.000000
    7        3.608804   1.000000
    8        3.867165   1.000000
    9        4.247619   1.000000
   10        6.523930   0.000000
   11        6.812450   0.000000
   12        7.027770   0.000000
   13       10.099133   0.000000
   14       10.658348   0.000000

  0.1428571E+00  0.1428571E+00  0.4000000E+00  0.4897959E-01
    1       -6.960032   1.000000
    2       -6.349519   1.000000
    3       -3.521107   1.000000
    4        1.323477   1.000000
    5        1.902319   1.000000
    6        2.416540   1.000000
    7        3.285788   1.000000
    8        4.205477   1.000000
    9        4.623310   1.000000
   10        6.298610   0.000000
   11        7.340234   0.000000
   12        7.683960   0.000000
   13       10.064447   0.000000
   14       10.862312   0.000000

  0.2857143E+00  0.1428571E+00  0.4000000E+00  0.4897959E-01
    1       -6.609750   1.000000
    2       -6.123902   1.000000
    3       -4.069530   1.000000
    4        0.508171   1.000000
    5        1.399042   1.000000
    6        1.904169   1.000000
    7        3.310540   1.000000
    8        4.697690   1.000000
    9        5.250540   1.000000
   10        6.224339   0.000000
   11        6.849084   0.000000
   12        7.922425   0.000000
   13        9.958639   0.000000
   14       11.690479   0.000000

  0.4285714E+00  0.1428571E+00  0.4000000E+00  0.4897959E-01
    1       -6.442998   1.000000
    2       -5.935773   1.000000
    3       -4.420814   1.000000
    4        0.264865   1.000000
    5        1.192243   1.000000
    6        1.703821   1.000000
    7        3.555622   1.000000
    8        4.502072   1.000000
    9        4.992287   1.000000
   10        6.624598   0.000000
   11        7.064471   0.000000
   12        7.822757   0.000000
   13       10.141791   0.000000
   14       11.380441   0.000000

 -0.4285714E+00  0.1428571E+00  0.4000000E+00  0.4897959E-01
    1       -6.645152   1.000000
    2       -6.057407   1.000000
    3       -4.136675   1.000000
    4        0.759117   1.000000
    5        1.326971   1.000000
    6        1.851714   1.000000
    7        3.577558   1.000000
    8        4.238334   1.000000
    9        4.510262   1.000000
   10        6.845446   0.000000
   11        7.403733   0.000000
   12        7.914798   0.000000
   13       10.427528   0.000000
   14       11.055658   0.000000

  0.2857143E+00  0.2857143E+00  0.4000000E+00  0.4897959E-01
    1       -6.377017   1.000000
    2       -5.938774   1.000000
    3       -4.443054   1.000000
    4        0.527603   1.000000
    5        0.784285   1.000000
    6        1.165635   1.000000
    7        4.001779   1.000000
    8        4.965952   1.000000
    9        5.381488   1.000000
   10        6.177668   0.000000
   11        6.964676   0.000000
   12        7.527027   0.000000
   13       10.855661   0.000000
   14       11.492636   0.000000
