 running on    2 total cores
 distrk:  each k-point on    2 cores,    1 groups
 distr:  one band on    1 cores,    2 groups
 using from now: INCAR     
 vasp.5.4.4.18Apr17-6-g9f103f2a35 (build May 21 2018 15:16:00) complex           
 POSCAR found type information on POSCAR  Te
 POSCAR found :  1 types and       3 ions
 scaLAPACK will be used
 LDA part: xc-table for Pade appr. of Perdew
 POSCAR, INCAR and KPOINTS ok, starting setup
 FFT: planning ...
 WAVECAR not read
 entering main loop
       N       E                     dE             d eps       ncg     rms          rms(c)
DAV:   1     0.722591851669E+02    0.72259E+02   -0.63666E+03   896   0.993E+02
DAV:   2    -0.464701457025E+01   -0.76906E+02   -0.73797E+02  1194   0.143E+02
DAV:   3    -0.934217884997E+01   -0.46952E+01   -0.46694E+01  1052   0.408E+01
DAV:   4    -0.942785338154E+01   -0.85675E-01   -0.85643E-01  1228   0.649E+00
DAV:   5    -0.942921314025E+01   -0.13598E-02   -0.13598E-02  1160   0.726E-01    0.124E+01
DAV:   6    -0.941459155710E+01    0.14622E-01   -0.18401E-02  1028   0.879E-01    0.784E+00
DAV:   7    -0.941287747606E+01    0.17141E-02   -0.38720E-02  1004   0.131E+00    0.291E-01
DAV:   8    -0.941226762744E+01    0.60985E-03   -0.71138E-03   920   0.509E-01    0.157E-01
DAV:   9    -0.941229903840E+01   -0.31411E-04   -0.19933E-04  1214   0.101E-01    0.114E-01
DAV:  10    -0.941234161896E+01   -0.42581E-04   -0.55187E-05   932   0.503E-02    0.273E-02
DAV:  11    -0.941233582563E+01    0.57933E-05   -0.19743E-05  1034   0.291E-02    0.150E-02
DAV:  12    -0.941233596524E+01   -0.13961E-06   -0.20649E-06   768   0.912E-03
   1 F= -.94123360E+01 E0= -.94123360E+01  d E =-.941234E+01
 curvature:   0.00 expect dE= 0.000E+00 dE for cont linesearch  0.000E+00
 trial: gam= 0.00000 g(F)=  0.498E-02 g(S)=  0.570E-01 ort = 0.000E+00 (trialstep = 0.100E+01)
 search vector abs. value=  0.619E-01
 bond charge predicted
       N       E                     dE             d eps       ncg     rms          rms(c)
DAV:   1    -0.951928887105E+01   -0.10695E+00   -0.24733E+00   896   0.742E+00    0.202E+00
DAV:   2    -0.945465012580E+01    0.64639E-01   -0.96304E-02   896   0.184E+00    0.104E+00
DAV:   3    -0.943041438691E+01    0.24236E-01   -0.22954E-02  1004   0.745E-01    0.375E-01
DAV:   4    -0.942256442777E+01    0.78500E-02   -0.15114E-02   902   0.555E-01    0.773E-01
DAV:   5    -0.942245148896E+01    0.11294E-03   -0.71249E-04  1232   0.159E-01    0.269E-01
DAV:   6    -0.942246261848E+01   -0.11130E-04   -0.24449E-05  1118   0.311E-02    0.360E-02
DAV:   7    -0.942246427807E+01   -0.16596E-05   -0.77964E-07   784   0.635E-03    0.280E-02
DAV:   8    -0.942246572336E+01   -0.14453E-05   -0.30962E-07   640   0.400E-03    0.408E-03
DAV:   9    -0.942246600615E+01   -0.28278E-06   -0.10504E-07   484   0.230E-03
   2 F= -.94224660E+01 E0= -.94224660E+01  d E =-.101300E-01
 trial-energy change:   -0.010130  1 .order   -0.011702   -0.061947    0.038544
 step:   0.5938(harm=  0.6164)  dis= 0.00460  next Energy=    -9.430399 (dE=-0.181E-01)
 bond charge predicted
       N       E                     dE             d eps       ncg     rms          rms(c)
DAV:   1    -0.944637642595E+01   -0.23911E-01   -0.41791E-01   896   0.309E+00    0.798E-01
DAV:   2    -0.943555936295E+01    0.10817E-01   -0.15538E-02   896   0.734E-01    0.387E-01
DAV:   3    -0.943123397217E+01    0.43254E-02   -0.48561E-03   986   0.334E-01    0.162E-01
DAV:   4    -0.943032806410E+01    0.90591E-03   -0.16684E-03   938   0.187E-01    0.300E-01
DAV:   5    -0.943029902417E+01    0.29040E-04   -0.11722E-04  1252   0.620E-02    0.613E-02
DAV:   6    -0.943029829211E+01    0.73207E-06   -0.25236E-06  1098   0.106E-02
   3 F= -.94302983E+01 E0= -.94302983E+01  d E =-.179623E-01
 curvature:  -0.31 expect dE=-0.864E-04 dE for cont linesearch -0.956E-09
 trial: gam= 0.00432 g(F)=  0.772E-05 g(S)=  0.274E-03 ort = 0.139E-04 (trialstep = 0.919E+00)
 search vector abs. value=  0.283E-03
 bond charge predicted
       N       E                     dE             d eps       ncg     rms          rms(c)
DAV:   1    -0.943060502609E+01   -0.30600E-03   -0.73189E-03   914   0.431E-01    0.743E-02
DAV:   2    -0.943055770769E+01    0.47318E-04   -0.22090E-04   974   0.898E-02    0.305E-02
DAV:   3    -0.943053418218E+01    0.23526E-04   -0.37099E-05  1118   0.328E-02    0.170E-02
DAV:   4    -0.943053194059E+01    0.22416E-05   -0.48909E-06   968   0.122E-02    0.146E-02
DAV:   5    -0.943053174189E+01    0.19870E-06   -0.10357E-06   502   0.658E-03
   4 F= -.94305317E+01 E0= -.94305317E+01  d E =-.233450E-03
 ZBRENT: can't locate minimum, use default step
 trial-energy change:   -0.000233  1 .order   -0.000235   -0.000258   -0.000211
 step:   3.6750(harm=  4.9906)  dis= 0.00115  next Energy=    -9.431000 (dE=-0.702E-03)
 bond charge predicted
       N       E                     dE             d eps       ncg     rms          rms(c)
DAV:   1    -0.943157305030E+01   -0.10411E-02   -0.65564E-02   914   0.129E+00    0.213E-01
DAV:   2    -0.943114894489E+01    0.42411E-03   -0.19724E-03   968   0.269E-01    0.854E-02
DAV:   3    -0.943094539750E+01    0.20355E-03   -0.32072E-04  1124   0.969E-02    0.542E-02
DAV:   4    -0.943092649938E+01    0.18898E-04   -0.46133E-05  1004   0.372E-02    0.456E-02
DAV:   5    -0.943092566505E+01    0.83432E-06   -0.10752E-05  1028   0.200E-02    0.341E-03
DAV:   6    -0.943092574287E+01   -0.77812E-07   -0.55132E-07   496   0.524E-03
   5 F= -.94309257E+01 E0= -.94309257E+01  d E =-.627451E-03
 curvature:  -2.24 expect dE=-0.773E-04 dE for cont linesearch -0.292E-04
 ZBRENT: extrapolating
 opt :   4.6646  next Energy=    -9.430956 (dE=-0.657E-03)
 bond charge predicted
       N       E                     dE             d eps       ncg     rms          rms(c)
DAV:   1    -0.943103919687E+01   -0.11353E-03   -0.84644E-03   914   0.463E-01    0.768E-02
DAV:   2    -0.943098530162E+01    0.53895E-04   -0.25228E-04   968   0.960E-02    0.308E-02
DAV:   3    -0.943095900964E+01    0.26292E-04   -0.41341E-05  1130   0.348E-02    0.191E-02
DAV:   4    -0.943095646746E+01    0.25422E-05   -0.58649E-06   968   0.133E-02    0.159E-02
DAV:   5    -0.943095635799E+01    0.10947E-06   -0.11608E-06   520   0.701E-03
   6 F= -.94309564E+01 E0= -.94309564E+01  d E =-.658066E-03
 curvature:  -2.31 expect dE=-0.808E-04 dE for cont linesearch -0.154E-06
 trial: gam= 0.11157 g(F)=  0.293E-04 g(S)=  0.579E-05 ort = 0.435E-05 (trialstep = 0.167E+01)
 search vector abs. value=  0.395E-04
 bond charge predicted
       N       E                     dE             d eps       ncg     rms          rms(c)
DAV:   1    -0.943104185975E+01   -0.85392E-04   -0.30317E-03   896   0.289E-01    0.308E-02
DAV:   2    -0.943102660390E+01    0.15256E-04   -0.12464E-04  1010   0.668E-02    0.192E-02
DAV:   3    -0.943101358926E+01    0.13015E-04   -0.16160E-05  1010   0.204E-02    0.989E-03
DAV:   4    -0.943101107702E+01    0.25122E-05   -0.47260E-06   902   0.102E-02    0.167E-02
DAV:   5    -0.943101123396E+01   -0.15694E-06   -0.13583E-07   466   0.278E-03
   7 F= -.94310112E+01 E0= -.94310112E+01  d E =-.548760E-04
 ZBRENT: can't locate minimum, use default step
 trial-energy change:   -0.000055  1 .order   -0.000053   -0.000059   -0.000046
 step:   6.6717(harm=  7.3085)  dis= 0.00481  next Energy=    -9.431086 (dE=-0.130E-03)
 bond charge predicted
       N       E                     dE             d eps       ncg     rms          rms(c)
DAV:   1    -0.943135262786E+01   -0.34155E-03   -0.27418E-02   896   0.869E-01    0.917E-02
DAV:   2    -0.943121241453E+01    0.14021E-03   -0.11392E-03  1016   0.202E-01    0.601E-02
DAV:   3    -0.943109863066E+01    0.11378E-03   -0.14106E-04  1004   0.605E-02    0.275E-02
DAV:   4    -0.943107647326E+01    0.22157E-04   -0.43578E-05   964   0.308E-02    0.488E-02
DAV:   5    -0.943107678133E+01   -0.30807E-06   -0.12599E-06   670   0.831E-03
   8 F= -.94310768E+01 E0= -.94310768E+01  d E =-.120423E-03
 curvature:  -4.01 expect dE=-0.939E-04 dE for cont linesearch -0.341E-05
 ZBRENT: extrapolating
 opt :   8.0114  next Energy=    -9.431081 (dE=-0.124E-03)
 bond charge predicted
       N       E                     dE             d eps       ncg     rms          rms(c)
DAV:   1    -0.943109238152E+01   -0.15908E-04   -0.19346E-03   896   0.232E-01    0.244E-02
DAV:   2    -0.943108273868E+01    0.96428E-05   -0.79413E-05  1016   0.534E-02    0.158E-02
DAV:   3    -0.943107430955E+01    0.84291E-05   -0.10763E-05  1010   0.164E-02    0.786E-03
DAV:   4    -0.943107276602E+01    0.15435E-05   -0.23631E-06   546   0.767E-03    0.103E-02
DAV:   5    -0.943107268950E+01    0.76512E-07   -0.57662E-07   454   0.484E-03
   9 F= -.94310727E+01 E0= -.94310727E+01  d E =-.116332E-03
 curvature:  -4.57 expect dE=-0.262E-03 dE for cont linesearch -0.394E-05
 trial: gam= 1.80751 g(F)=  0.407E-05 g(S)=  0.532E-04 ort =-0.584E-05 (trialstep = 0.702E+00)
 search vector abs. value=  0.165E-03
 bond charge predicted
       N       E                     dE             d eps       ncg     rms          rms(c)
DAV:   1    -0.943107909996E+01   -0.63339E-05   -0.19293E-03   896   0.240E-01    0.376E-02
DAV:   2    -0.943108736552E+01   -0.82656E-05   -0.91029E-05  1052   0.555E-02    0.156E-02
DAV:   3    -0.943108721698E+01    0.14854E-06   -0.14283E-06   866   0.858E-03    0.907E-03
DAV:   4    -0.943108792590E+01   -0.70892E-06   -0.13631E-06   466   0.635E-03    0.256E-03
DAV:   5    -0.943108804529E+01   -0.11939E-06   -0.14618E-07   466   0.279E-03
  10 F= -.94310880E+01 E0= -.94310880E+01  d E =-.153558E-04
 trial-energy change:   -0.000015  1 .order   -0.000013   -0.000033    0.000007
 step:   0.5721(harm=  0.5721)  dis= 0.00089  next Energy=    -9.431086 (dE=-0.134E-04)
 bond charge predicted
       N       E                     dE             d eps       ncg     rms          rms(c)
DAV:   1    -0.943108862432E+01   -0.69842E-06   -0.66680E-05   896   0.446E-02    0.481E-03
DAV:   2    -0.943108871148E+01   -0.87168E-07   -0.31168E-06   932   0.102E-02    0.472E-03
DAV:   3    -0.943108860161E+01    0.10988E-06   -0.35263E-08   448   0.150E-03    0.354E-03
DAV:   4    -0.943108825399E+01    0.34761E-06   -0.77132E-08   448   0.148E-03    0.168E-04
DAV:   5    -0.943108824471E+01    0.92814E-08   -0.69913E-09   448   0.603E-04
  11 F= -.94310882E+01 E0= -.94310882E+01  d E =-.155552E-04
 curvature:  -1.01 expect dE=-0.407E-05 dE for cont linesearch -0.346E-10
 trial: gam=-0.15972 g(F)=  0.244E-06 g(S)=  0.377E-05 ort =-0.752E-07 (trialstep = 0.676E+00)
 search vector abs. value=  0.826E-05
 bond charge predicted
       N       E                     dE             d eps       ncg     rms          rms(c)
DAV:   1    -0.943109237374E+01   -0.41197E-05   -0.10949E-04   896   0.543E-02    0.617E-03
DAV:   2    -0.943109123382E+01    0.11399E-05   -0.44779E-06  1022   0.125E-02    0.469E-03
DAV:   3    -0.943109075785E+01    0.47597E-06   -0.70994E-07   448   0.435E-03    0.168E-03
DAV:   4    -0.943109078657E+01   -0.28721E-07   -0.39750E-07   448   0.322E-03    0.359E-03
DAV:   5    -0.943109075757E+01    0.28999E-07   -0.32418E-08   448   0.132E-03
  12 F= -.94310908E+01 E0= -.94310908E+01  d E =-.251286E-05
 ZBRENT: can't locate minimum, use default step
 trial-energy change:   -0.000003  1 .order   -0.000002   -0.000003   -0.000002
 step:   2.7050(harm=  3.0040)  dis= 0.00073  next Energy=    -9.431094 (dE=-0.605E-05)
 bond charge predicted
       N       E                     dE             d eps       ncg     rms          rms(c)
DAV:   1    -0.943110889514E+01   -0.18109E-04   -0.97979E-04   896   0.163E-01    0.188E-02
DAV:   2    -0.943109935267E+01    0.95425E-05   -0.39865E-05   998   0.373E-02    0.131E-02
DAV:   3    -0.943109421051E+01    0.51422E-05   -0.69885E-06   998   0.131E-02    0.619E-03
DAV:   4    -0.943109356233E+01    0.64818E-06   -0.20824E-06   478   0.706E-03    0.931E-03
DAV:   5    -0.943109364851E+01   -0.86176E-07   -0.34616E-07   448   0.394E-03
  13 F= -.94310936E+01 E0= -.94310936E+01  d E =-.540380E-05
 curvature:  -3.03 expect dE=-0.458E-05 dE for cont linesearch -0.101E-06
 ZBRENT: interpolating
 opt :   2.4133  next Energy=    -9.431094 (dE=-0.548E-05)
 bond charge predicted
       N       E                     dE             d eps       ncg     rms          rms(c)
DAV:   1    -0.943109402904E+01   -0.46671E-06   -0.21008E-05   896   0.236E-02    0.296E-03
DAV:   2    -0.943109376645E+01    0.26259E-06   -0.82543E-07   448   0.568E-03    0.220E-03
DAV:   3    -0.943109345337E+01    0.31309E-06   -0.34113E-07   448   0.333E-03    0.866E-04
DAV:   4    -0.943109341701E+01    0.36357E-07   -0.31055E-08   448   0.129E-03    0.117E-03
DAV:   5    -0.943109341672E+01    0.29127E-09   -0.52303E-09   448   0.532E-04
  14 F= -.94310934E+01 E0= -.94310934E+01  d E =-.517200E-05
 curvature:  -2.30 expect dE=-0.206E-05 dE for cont linesearch -0.782E-09
 trial: gam= 0.56710 g(F)=  0.197E-06 g(S)=  0.700E-06 ort =-0.530E-07 (trialstep = 0.102E+01)
 search vector abs. value=  0.349E-05
 bond charge predicted
       N       E                     dE             d eps       ncg     rms          rms(c)
DAV:   1    -0.943109367743E+01   -0.26042E-06   -0.86496E-05   896   0.505E-02    0.538E-03
DAV:   2    -0.943109378637E+01   -0.10894E-06   -0.33106E-06   998   0.114E-02    0.150E-03
DAV:   3    -0.943109368231E+01    0.10406E-06   -0.49030E-08   448   0.170E-03    0.994E-04
DAV:   4    -0.943109359794E+01    0.84371E-07   -0.25190E-08   448   0.102E-03    0.597E-04
DAV:   5    -0.943109357444E+01    0.23497E-07   -0.45300E-09   448   0.502E-04
  15 F= -.94310936E+01 E0= -.94310936E+01  d E =-.157722E-06
 trial-energy change:   -0.000000  1 .order   -0.000000   -0.000001   -0.000000
 step:   1.0405(harm=  1.0405)  dis= 0.00021  next Energy=    -9.431094 (dE=-0.451E-06)
 reached required accuracy - stopping structural energy minimisation
