 vasp.5.4.4.18Apr17-6-g9f103f2a35 (build May 21 2018 15:16:00) complex           
 executed on GUN_wannier90_optcel date 2019.03.24  21:25:43
 running on    2 total cores
 distrk:  each k-point on    2 cores,    1 groups
 distr:  one band on NCORES_PER_BAND=   1 cores,    2 groups


--------------------------------------------------------------------------------------------------------


 INCAR:
 POTCAR:    PAW_PBE Te 08Apr2002                  
 POTCAR:    PAW_PBE Te 08Apr2002                  
  local pseudopotential read in
  partial core-charges read in
  partial kinetic energy density read in
  atomic valenz-charges read in
  non local Contribution for L=           0  read in
    real space projection operators read in
  non local Contribution for L=           0  read in
    real space projection operators read in
  non local Contribution for L=           1  read in
    real space projection operators read in
  non local Contribution for L=           1  read in
    real space projection operators read in
  non local Contribution for L=           2  read in
    real space projection operators read in
    PAW grid and wavefunctions read in

   number of l-projection  operators is LMAX  =           5
   number of lm-projection operators is LMMAX =          13

  PAW_PBE Te 08Apr2002                  :
 energy of atom  1       EATOM= -223.2721
 kinetic energy error for atom=    0.0007 (will be added to EATOM!!)


 POSCAR: Te                                      
  positions in direct lattice
  No initial velocities read in
 exchange correlation table for  LEXCH =        8
   RHO(1)=    0.500       N(1)  =     2000
   RHO(2)=  100.500       N(2)  =     4000



--------------------------------------------------------------------------------------------------------


 ion  position               nearest neighbor table
   1  0.269  0.000  0.167-   3 2.86   2 2.86   3 3.46   3 3.46   2 3.46   2 3.46
   2  0.000  0.269  0.833-   3 2.86   1 2.86   3 3.46   3 3.46   1 3.46   1 3.46
   3  0.731  0.731  0.500-   1 2.86   2 2.86   1 3.46   2 3.46   1 3.46   2 3.46

  LATTYP: Found a hexagonal cell.
 ALAT       =     4.4469300000
 C/A-ratio  =     1.3301131342
  
  Lattice vectors:
  
 A1 = (   2.2234650000,  -3.8511543489,   0.0000000000)
 A2 = (   2.2234650000,   3.8511543489,   0.0000000000)
 A3 = (   0.0000000000,   0.0000000000,   5.9149200000)


Analysis of symmetry for initial positions (statically):
=====================================================================
 Subroutine PRICEL returns:
 Original cell was already a primitive cell.
 

 Routine SETGRP: Setting up the symmetry group for a 
 hexagonal supercell.


 Subroutine GETGRP returns: Found  6 space group operations
 (whereof  2 operations were pure point group operations)
 out of a pool of 24 trial point group operations.


The static configuration has the point symmetry C_2 .
 The point group associated with its full space group is D_3 .


Analysis of symmetry for dynamics (positions and initial velocities):
=====================================================================
 Subroutine PRICEL returns:
 Original cell was already a primitive cell.
 

 Routine SETGRP: Setting up the symmetry group for a 
 hexagonal supercell.


 Subroutine GETGRP returns: Found  6 space group operations
 (whereof  2 operations were pure point group operations)
 out of a pool of 24 trial point group operations.


The dynamic configuration has the point symmetry C_2 .
 The point group associated with its full space group is D_3 .


Analysis of constrained symmetry for selective dynamics:
=====================================================================
 Subroutine PRICEL returns:
 Original cell was already a primitive cell.
 

 Routine SETGRP: Setting up the symmetry group for a 
 hexagonal supercell.


 Subroutine GETGRP returns: Found  6 space group operations
 (whereof  2 operations were pure point group operations)
 out of a pool of 24 trial point group operations.


The constrained configuration has the point symmetry C_2 .
 The point group associated with its full space group is D_3 .


 Subroutine INISYM returns: Found  6 space group operations
 (whereof  2 operations are pure point group operations),
 and found     1 'primitive' translations



 KPOINTS: K-point                                 

Automatic generation of k-mesh.
Space group operators:
 irot       det(A)        alpha          n_x          n_y          n_z        tau_x        tau_y        tau_z
    1     1.000000     0.000000     1.000000     0.000000     0.000000     0.000000     0.000000     0.000000
    2     1.000000   180.000000     1.000000     0.000000     0.000000     0.000000     0.000000     0.000000
    3     1.000000   120.000000     0.000000     0.000000    -1.000000     0.000000     0.000000     0.666667
    4     1.000000   120.000000     0.000000     0.000000     1.000000     0.000000     0.000000     0.333333
    5     1.000000   179.999999     0.500000    -0.866025     0.000000     0.000000     0.000000     0.333333
    6     1.000000   179.999999    -0.500000    -0.866025     0.000000     0.000000     0.000000     0.666667
 
 Subroutine IBZKPT returns following result:
 ===========================================
 
 Found     32 irreducible k-points:
 
 Following reciprocal coordinates:
            Coordinates               Weight
  0.000000  0.000000  0.000000      1.000000
  0.142857  0.000000  0.000000      6.000000
  0.285714  0.000000  0.000000      6.000000
  0.428571  0.000000  0.000000      6.000000
  0.142857  0.142857  0.000000      6.000000
  0.285714  0.142857  0.000000     12.000000
  0.428571  0.142857  0.000000      6.000000
  0.285714  0.285714  0.000000      6.000000
  0.000000  0.000000  0.200000      2.000000
  0.142857  0.000000  0.200000      6.000000
  0.285714  0.000000  0.200000      6.000000
  0.428571  0.000000  0.200000      6.000000
 -0.428571  0.000000  0.200000      6.000000
 -0.285714  0.000000  0.200000      6.000000
 -0.142857  0.000000  0.200000      6.000000
  0.142857  0.142857  0.200000     12.000000
  0.285714  0.142857  0.200000     12.000000
  0.428571  0.142857  0.200000     12.000000
 -0.428571  0.142857  0.200000     12.000000
  0.285714  0.285714  0.200000     12.000000
  0.000000  0.000000  0.400000      2.000000
  0.142857  0.000000  0.400000      6.000000
  0.285714  0.000000  0.400000      6.000000
  0.428571  0.000000  0.400000      6.000000
 -0.428571  0.000000  0.400000      6.000000
 -0.285714  0.000000  0.400000      6.000000
 -0.142857  0.000000  0.400000      6.000000
  0.142857  0.142857  0.400000     12.000000
  0.285714  0.142857  0.400000     12.000000
  0.428571  0.142857  0.400000     12.000000
 -0.428571  0.142857  0.400000     12.000000
  0.285714  0.285714  0.400000     12.000000
 
 Following cartesian coordinates:
            Coordinates               Weight
  0.000000  0.000000  0.000000      1.000000
  0.032125 -0.018547  0.000000      6.000000
  0.064250 -0.037095  0.000000      6.000000
  0.096375 -0.055642  0.000000      6.000000
  0.064250  0.000000  0.000000      6.000000
  0.096375 -0.018547  0.000000     12.000000
  0.128500 -0.037095  0.000000      6.000000
  0.128500  0.000000  0.000000      6.000000
  0.000000  0.000000  0.033813      2.000000
  0.032125 -0.018547  0.033813      6.000000
  0.064250 -0.037095  0.033813      6.000000
  0.096375 -0.055642  0.033813      6.000000
 -0.096375  0.055642  0.033813      6.000000
 -0.064250  0.037095  0.033813      6.000000
 -0.032125  0.018547  0.033813      6.000000
  0.064250  0.000000  0.033813     12.000000
  0.096375 -0.018547  0.033813     12.000000
  0.128500 -0.037095  0.033813     12.000000
 -0.064250  0.074189  0.033813     12.000000
  0.128500  0.000000  0.033813     12.000000
  0.000000  0.000000  0.067626      2.000000
  0.032125 -0.018547  0.067626      6.000000
  0.064250 -0.037095  0.067626      6.000000
  0.096375 -0.055642  0.067626      6.000000
 -0.096375  0.055642  0.067626      6.000000
 -0.064250  0.037095  0.067626      6.000000
 -0.032125  0.018547  0.067626      6.000000
  0.064250  0.000000  0.067626     12.000000
  0.096375 -0.018547  0.067626     12.000000
  0.128500 -0.037095  0.067626     12.000000
 -0.064250  0.074189  0.067626     12.000000
  0.128500  0.000000  0.067626     12.000000
 


--------------------------------------------------------------------------------------------------------




 Dimension of arrays:
   k-points           NKPTS =     32   k-points in BZ     NKDIM =     32   number of bands    NBANDS=     14
   number of dos      NEDOS =    301   number of ions     NIONS =      3
   non local maximal  LDIM  =      5   non local SUM 2l+1 LMDIM =     13
   total plane-waves  NPLWV =  49152
   max r-space proj   IRMAX =      1   max aug-charges    IRDMAX=  28418
   dimension x,y,z NGX =    32 NGY =   32 NGZ =   48
   dimension x,y,z NGXF=    64 NGYF=   64 NGZF=   96
   support grid    NGXF=    64 NGYF=   64 NGZF=   96
   ions per type =               3
   NGX,Y,Z   is equivalent  to a cutoff of  11.96, 11.96, 13.49 a.u.
   NGXF,Y,Z  is equivalent  to a cutoff of  23.93, 23.93, 26.98 a.u.

 SYSTEM =  Te-a                                    
 POSCAR =  Te                                      

 Startparameter for this run:
   NWRITE =      1    write-flag & timer
   PREC   = a         normal or accurate (medium, high low for compatibility)
   ISTART =      0    job   : 0-new  1-cont  2-samecut
   ICHARG =      2    charge: 1-file 2-atom 10-const
   ISPIN  =      1    spin polarized calculation?
   LNONCOLLINEAR =      F non collinear calculations
   LSORBIT =      F    spin-orbit coupling
   INIWAV =      1    electr: 0-lowe 1-rand  2-diag
   LASPH  =      T    aspherical Exc in radial PAW
   METAGGA=      F    non-selfconsistent MetaGGA calc.

 Electronic Relaxation 1
   ENCUT  =  500.0 eV  36.75 Ry    6.06 a.u.   8.11  8.11 10.78*2*pi/ulx,y,z
   ENINI  =  500.0     initial cutoff
   ENAUG  =  368.8 eV  augmentation charge cutoff
   NELM   =   2000;   NELMIN=  5; NELMDL= -5     # of ELM steps 
   EDIFF  = 0.1E-05   stopping-criterion for ELM
   LREAL  =      F    real-space projection
   NLSPLINE    = F    spline interpolate recip. space projectors
   LCOMPAT=      F    compatible to vasp.4.4
   GGA_COMPAT  = F    GGA compatible to vasp.4.4-vasp.4.6
   LMAXPAW     = -100 max onsite density
   LMAXMIX     =    2 max onsite mixed and CHGCAR
   VOSKOWN=      0    Vosko Wilk Nusair interpolation
   ROPT   =    0.00000
 Ionic relaxation
   EDIFFG = -.1E-02   stopping-criterion for IOM
   NSW    =    500    number of steps for IOM
   NBLOCK =      1;   KBLOCK =      5    inner block; outer block 
   IBRION =      2    ionic relax: 0-MD 1-quasi-New 2-CG
   NFREE  =      1    steps in history (QN), initial steepest desc. (CG)
   ISIF   =      3    stress and relaxation
   IWAVPR =     11    prediction:  0-non 1-charg 2-wave 3-comb
   ISYM   =      2    0-nonsym 1-usesym 2-fastsym
   LCORR  =      T    Harris-Foulkes like correction to forces

   POTIM  = 0.5000    time-step for ionic-motion
   TEIN   =    0.0    initial temperature
   TEBEG  =    0.0;   TEEND  =   0.0 temperature during run
   SMASS  =  -3.00    Nose mass-parameter (am)
   estimated Nose-frequenzy (Omega)   =  0.10E-29 period in steps =****** mass=  -0.452E-27a.u.
   SCALEE = 1.0000    scale energy and forces
   NPACO  =    256;   APACO  = 16.0  distance and # of slots for P.C.
   PSTRESS=    0.0 pullay stress

  Mass of Ions in am
   POMASS = 127.60
  Ionic Valenz
   ZVAL   =   6.00
  Atomic Wigner-Seitz radii
   RWIGS  =  -1.00
  virtual crystal weights 
   VCA    =   1.00
   NELECT =      18.0000    total number of electrons
   NUPDOWN=      -1.0000    fix difference up-down

 DOS related values:
   EMIN   =  10.00;   EMAX   =-10.00  energy-range for DOS
   EFERMI =   0.00
   ISMEAR =     0;   SIGMA  =   0.05  broadening in eV -4-tet -1-fermi 0-gaus

 Electronic relaxation 2 (details)
   IALGO  =     38    algorithm
   LDIAG  =      T    sub-space diagonalisation (order eigenvalues)
   LSUBROT=      F    optimize rotation matrix (better conditioning)
   TURBO    =      0    0=normal 1=particle mesh
   IRESTART =      0    0=no restart 2=restart with 2 vectors
   NREBOOT  =      0    no. of reboots
   NMIN     =      0    reboot dimension
   EREF     =   0.00    reference energy to select bands
   IMIX   =      4    mixing-type and parameters
     AMIX     =   0.40;   BMIX     =  1.00
     AMIX_MAG =   1.60;   BMIX_MAG =  1.00
     AMIN     =   0.10
     WC   =   100.;   INIMIX=   1;  MIXPRE=   1;  MAXMIX= -45

 Intra band minimization:
   WEIMIN = 0.0010     energy-eigenvalue tresh-hold
   EBREAK =  0.18E-07  absolut break condition
   DEPER  =   0.30     relativ break condition  

   TIME   =   0.40     timestep for ELM

  volume/ion in A,a.u.               =      33.77       227.86
  Fermi-wavevector in a.u.,A,eV,Ry     =   0.920377  1.739260 11.525405  0.847093
  Thomas-Fermi vector in A             =   2.045675

 Write flags
   LWAVE        =      F    write WAVECAR
   LDOWNSAMPLE  =      F    k-point downsampling of WAVECAR
   LCHARG       =      F    write CHGCAR
   LVTOT        =      F    write LOCPOT, total local potential
   LVHAR        =      F    write LOCPOT, Hartree potential only
   LELF         =      F    write electronic localiz. function (ELF)
   LORBIT       =      0    0 simple, 1 ext, 2 COOP (PROOUT), +10 PAW based schemes


 Dipole corrections
   LMONO  =      F    monopole corrections only (constant potential shift)
   LDIPOL =      F    correct potential (dipole corrections)
   IDIPOL =      0    1-x, 2-y, 3-z, 4-all directions 
   EPSILON=  1.0000000 bulk dielectric constant

 Exchange correlation treatment:
   GGA     =    --    GGA type
   LEXCH   =     8    internal setting for exchange type
   VOSKOWN=      0    Vosko Wilk Nusair interpolation
   LHFCALC =     F    Hartree Fock is set to
   LHFONE  =     F    Hartree Fock one center treatment
   AEXX    =    0.0000 exact exchange contribution

 Linear response parameters
   LEPSILON=     F    determine dielectric tensor
   LRPA    =     F    only Hartree local field effects (RPA)
   LNABLA  =     F    use nabla operator in PAW spheres
   LVEL    =     F    velocity operator in full k-point grid
   LINTERFAST=   F  fast interpolation
   KINTER  =     0    interpolate to denser k-point grid
   CSHIFT  =0.1000    complex shift for real part using Kramers Kronig
   OMEGAMAX=  -1.0    maximum frequency
   DEG_THRESHOLD= 0.2000000E-02 threshold for treating states as degnerate
   RTIME   =   -0.100 relaxation time in fs
  (WPLASMAI=    0.000 imaginary part of plasma frequency in eV, 0.658/RTIME)
   DFIELD  = 0.0000000 0.0000000 0.0000000 field for delta impulse in time

 Orbital magnetization related:
   ORBITALMAG=     F  switch on orbital magnetization
   LCHIMAG   =     F  perturbation theory with respect to B field
   DQ        =  0.001000  dq finite difference perturbation B field
   LLRAUG    =     F  two centre corrections for induced B field



--------------------------------------------------------------------------------------------------------


 conjugate gradient relaxation of ions
   using selective dynamics as specified on POSCAR
 charge density and potential will be updated during run
 non-spin polarized calculation
 Variant of blocked Davidson
 Davidson routine will perform the subspace rotation
 perform sub-space diagonalisation
    after iterative eigenvector-optimisation
 modified Broyden-mixing scheme, WC =      100.0
 initial mixing is a Kerker type mixing with AMIX =  0.4000 and BMIX =      1.0000
 Hartree-type preconditioning will be used
 using additional bands            5
 reciprocal scheme for non local part
 use partial core corrections
 calculate Harris-corrections to forces   (improved forces if not selfconsistent)
 use gradient corrections 
 use of overlap-Matrix (Vanderbilt PP)
 Gauss-broadening in eV      SIGMA  =   0.05


--------------------------------------------------------------------------------------------------------


  energy-cutoff  :      500.00
  volume of cell :      101.30
      direct lattice vectors                 reciprocal lattice vectors
     2.223465000 -3.851154349  0.000000000     0.224874239 -0.129831202  0.000000000
     2.223465000  3.851154349  0.000000000     0.224874239  0.129831202 -0.000000000
     0.000000000  0.000000000  5.914920000    -0.000000000  0.000000000  0.169063994

  length of vectors
     4.446930000  4.446930000  5.914920000     0.259662405  0.259662405  0.169063994



 k-points in units of 2pi/SCALE and weight: K-point                                 
   0.00000000  0.00000000  0.00000000       0.004
   0.03212489 -0.01854731  0.00000000       0.024
   0.06424978 -0.03709463  0.00000000       0.024
   0.09637467 -0.05564194  0.00000000       0.024
   0.06424978  0.00000000  0.00000000       0.024
   0.09637467 -0.01854731  0.00000000       0.049
   0.12849957 -0.03709463  0.00000000       0.024
   0.12849957  0.00000000  0.00000000       0.024
   0.00000000  0.00000000  0.03381280       0.008
   0.03212489 -0.01854731  0.03381280       0.024
   0.06424978 -0.03709463  0.03381280       0.024
   0.09637467 -0.05564194  0.03381280       0.024
  -0.09637467  0.05564194  0.03381280       0.024
  -0.06424978  0.03709463  0.03381280       0.024
  -0.03212489  0.01854731  0.03381280       0.024
   0.06424978  0.00000000  0.03381280       0.049
   0.09637467 -0.01854731  0.03381280       0.049
   0.12849957 -0.03709463  0.03381280       0.049
  -0.06424978  0.07418926  0.03381280       0.049
   0.12849957  0.00000000  0.03381280       0.049
   0.00000000  0.00000000  0.06762560       0.008
   0.03212489 -0.01854731  0.06762560       0.024
   0.06424978 -0.03709463  0.06762560       0.024
   0.09637467 -0.05564194  0.06762560       0.024
  -0.09637467  0.05564194  0.06762560       0.024
  -0.06424978  0.03709463  0.06762560       0.024
  -0.03212489  0.01854731  0.06762560       0.024
   0.06424978  0.00000000  0.06762560       0.049
   0.09637467 -0.01854731  0.06762560       0.049
   0.12849957 -0.03709463  0.06762560       0.049
  -0.06424978  0.07418926  0.06762560       0.049
   0.12849957  0.00000000  0.06762560       0.049

 k-points in reciprocal lattice and weights: K-point                                 
   0.00000000  0.00000000  0.00000000       0.004
   0.14285714  0.00000000  0.00000000       0.024
   0.28571429  0.00000000  0.00000000       0.024
   0.42857143  0.00000000  0.00000000       0.024
   0.14285714  0.14285714  0.00000000       0.024
   0.28571429  0.14285714  0.00000000       0.049
   0.42857143  0.14285714  0.00000000       0.024
   0.28571429  0.28571429  0.00000000       0.024
   0.00000000  0.00000000  0.20000000       0.008
   0.14285714  0.00000000  0.20000000       0.024
   0.28571429  0.00000000  0.20000000       0.024
   0.42857143  0.00000000  0.20000000       0.024
  -0.42857143  0.00000000  0.20000000       0.024
  -0.28571429  0.00000000  0.20000000       0.024
  -0.14285714  0.00000000  0.20000000       0.024
   0.14285714  0.14285714  0.20000000       0.049
   0.28571429  0.14285714  0.20000000       0.049
   0.42857143  0.14285714  0.20000000       0.049
  -0.42857143  0.14285714  0.20000000       0.049
   0.28571429  0.28571429  0.20000000       0.049
   0.00000000  0.00000000  0.40000000       0.008
   0.14285714  0.00000000  0.40000000       0.024
   0.28571429  0.00000000  0.40000000       0.024
   0.42857143  0.00000000  0.40000000       0.024
  -0.42857143  0.00000000  0.40000000       0.024
  -0.28571429  0.00000000  0.40000000       0.024
  -0.14285714  0.00000000  0.40000000       0.024
   0.14285714  0.14285714  0.40000000       0.049
   0.28571429  0.14285714  0.40000000       0.049
   0.42857143  0.14285714  0.40000000       0.049
  -0.42857143  0.14285714  0.40000000       0.049
   0.28571429  0.28571429  0.40000000       0.049

 position of ions in fractional coordinates (direct lattice) 
   0.26900000  0.00000000  0.16666667
   0.00000000  0.26900000  0.83333333
   0.73100000  0.73100000  0.50000000

 position of ions in cartesian coordinates  (Angst):
   0.59811208 -1.03596052  0.98582000
   0.59811208  1.03596052  4.92910000
   3.25070583  0.00000000  2.95746000



--------------------------------------------------------------------------------------------------------


 k-point  1 :   0.0000 0.0000 0.0000  plane waves:    2535
 k-point  2 :   0.1429 0.0000 0.0000  plane waves:    2578
 k-point  3 :   0.2857 0.0000 0.0000  plane waves:    2580
 k-point  4 :   0.4286 0.0000 0.0000  plane waves:    2574
 k-point  5 :   0.1429 0.1429 0.0000  plane waves:    2566
 k-point  6 :   0.2857 0.1429 0.0000  plane waves:    2569
 k-point  7 :   0.4286 0.1429 0.0000  plane waves:    2572
 k-point  8 :   0.2857 0.2857 0.0000  plane waves:    2590
 k-point  9 :   0.0000 0.0000 0.2000  plane waves:    2571
 k-point 10 :   0.1429 0.0000 0.2000  plane waves:    2563
 k-point 11 :   0.2857 0.0000 0.2000  plane waves:    2571
 k-point 12 :   0.4286 0.0000 0.2000  plane waves:    2580
 k-point 13 :  -0.4286 0.0000 0.2000  plane waves:    2580
 k-point 14 :  -0.2857 0.0000 0.2000  plane waves:    2571
 k-point 15 :  -0.1429 0.0000 0.2000  plane waves:    2563
 k-point 16 :   0.1429 0.1429 0.2000  plane waves:    2562
 k-point 17 :   0.2857 0.1429 0.2000  plane waves:    2568
 k-point 18 :   0.4286 0.1429 0.2000  plane waves:    2575
 k-point 19 :  -0.4286 0.1429 0.2000  plane waves:    2568
 k-point 20 :   0.2857 0.2857 0.2000  plane waves:    2566
 k-point 21 :   0.0000 0.0000 0.4000  plane waves:    2554
 k-point 22 :   0.1429 0.0000 0.4000  plane waves:    2551
 k-point 23 :   0.2857 0.0000 0.4000  plane waves:    2573
 k-point 24 :   0.4286 0.0000 0.4000  plane waves:    2582
 k-point 25 :  -0.4286 0.0000 0.4000  plane waves:    2582
 k-point 26 :  -0.2857 0.0000 0.4000  plane waves:    2573
 k-point 27 :  -0.1429 0.0000 0.4000  plane waves:    2551
 k-point 28 :   0.1429 0.1429 0.4000  plane waves:    2574
 k-point 29 :   0.2857 0.1429 0.4000  plane waves:    2581
 k-point 30 :   0.4286 0.1429 0.4000  plane waves:    2576
 k-point 31 :  -0.4286 0.1429 0.4000  plane waves:    2581
 k-point 32 :   0.2857 0.2857 0.4000  plane waves:    2574

 maximum and minimum number of plane-waves per node :      2590     2535

 maximum number of plane-waves:      2590
 maximum index in each direction: 
   IXMAX=    8   IYMAX=    8   IZMAX=   10
   IXMIN=   -8   IYMIN=   -8   IZMIN=  -11


 serial   3D FFT for wavefunctions
 parallel 3D FFT for charge:
    minimum data exchange during FFTs selected (reduces bandwidth)


 total amount of memory used by VASP MPI-rank0    66668. kBytes
=======================================================================

   base      :      30000. kBytes
   nonl-proj :       8743. kBytes
   fftplans  :       6926. kBytes
   grid      :      11550. kBytes
   one-center:         24. kBytes
   wavefun   :       9425. kBytes

     INWAV:  cpu time    0.0001: real time    0.0001
 Broyden mixing: mesh for mixing (old mesh)
   NGX = 17   NGY = 17   NGZ = 21
  (NGX  = 64   NGY  = 64   NGZ  = 96)
  gives a total of   6069 points

 initial charge density was supplied:
 charge density of overlapping atoms calculated
 number of electron      18.0000000 magnetization 
 keeping initial charge density in first step


--------------------------------------------------------------------------------------------------------


 Maximum index for augmentation-charges        13720 (set IRDMAX)


--------------------------------------------------------------------------------------------------------


 First call to EWALD:  gamma=   0.380
 Maximum number of real-space cells 3x 3x 2
 Maximum number of reciprocal cells 3x 3x 3

    FEWALD:  cpu time    0.0019: real time    0.0023


--------------------------------------- Iteration      1(   1)  ---------------------------------------


    POTLOK:  cpu time    0.1584: real time    0.1757
    SETDIJ:  cpu time    0.3156: real time    0.3298
     EDDAV:  cpu time    2.0847: real time    2.2841
       DOS:  cpu time    0.0006: real time    0.0007
    --------------------------------------------
      LOOP:  cpu time    2.5592: real time    2.7903

 eigenvalue-minimisations  :   896
 total energy-change (2. order) : 0.7225919E+02  (-0.6366604E+03)
 number of electron      18.0000000 magnetization 
 augmentation part       18.0000000 magnetization 

 Free energy of the ion-electron system (eV)
  ---------------------------------------------------
  alpha Z        PSCENC =         2.30757812
  Ewald energy   TEWEN  =      -676.11035698
  -Hartree energ DENC   =       -42.97582009
  -exchange      EXHF   =         0.00000000
  -V(xc)+E(xc)   XCENC  =       -84.04960295
  PAW double counting   =       623.23253030     -507.77874573
  entropy T*S    EENTRO =        -0.00321168
  eigenvalues    EBANDS =        87.82262663
  atomic energy  EATOM  =       669.81418755
  Solvation  Ediel_sol  =         0.00000000
  ---------------------------------------------------
  free energy    TOTEN  =        72.25918517 eV

  energy without entropy =       72.26239685  energy(sigma->0) =       72.26079101


--------------------------------------------------------------------------------------------------------




--------------------------------------- Iteration      1(   2)  ---------------------------------------


     EDDAV:  cpu time    2.3091: real time    2.5126
       DOS:  cpu time    0.0005: real time    0.0005
    --------------------------------------------
      LOOP:  cpu time    2.3096: real time    2.5131

 eigenvalue-minimisations  :  1194
 total energy-change (2. order) :-0.7690620E+02  (-0.7379724E+02)
 number of electron      18.0000000 magnetization 
 augmentation part       18.0000000 magnetization 

 Free energy of the ion-electron system (eV)
  ---------------------------------------------------
  alpha Z        PSCENC =         2.30757812
  Ewald energy   TEWEN  =      -676.11035698
  -Hartree energ DENC   =       -42.97582009
  -exchange      EXHF   =         0.00000000
  -V(xc)+E(xc)   XCENC  =       -84.04960295
  PAW double counting   =       623.23253030     -507.77874573
  entropy T*S    EENTRO =        -0.00000000
  eigenvalues    EBANDS =        10.91321521
  atomic energy  EATOM  =       669.81418755
  Solvation  Ediel_sol  =         0.00000000
  ---------------------------------------------------
  free energy    TOTEN  =        -4.64701457 eV

  energy without entropy =       -4.64701457  energy(sigma->0) =       -4.64701457


--------------------------------------------------------------------------------------------------------




--------------------------------------- Iteration      1(   3)  ---------------------------------------


     EDDAV:  cpu time    1.8537: real time    1.9017
       DOS:  cpu time    0.0005: real time    0.0005
    --------------------------------------------
      LOOP:  cpu time    1.8542: real time    1.9022

 eigenvalue-minimisations  :  1052
 total energy-change (2. order) :-0.4695164E+01  (-0.4669363E+01)
 number of electron      18.0000000 magnetization 
 augmentation part       18.0000000 magnetization 

 Free energy of the ion-electron system (eV)
  ---------------------------------------------------
  alpha Z        PSCENC =         2.30757812
  Ewald energy   TEWEN  =      -676.11035698
  -Hartree energ DENC   =       -42.97582009
  -exchange      EXHF   =         0.00000000
  -V(xc)+E(xc)   XCENC  =       -84.04960295
  PAW double counting   =       623.23253030     -507.77874573
  entropy T*S    EENTRO =        -0.00000000
  eigenvalues    EBANDS =         6.21805093
  atomic energy  EATOM  =       669.81418755
  Solvation  Ediel_sol  =         0.00000000
  ---------------------------------------------------
  free energy    TOTEN  =        -9.34217885 eV

  energy without entropy =       -9.34217885  energy(sigma->0) =       -9.34217885


--------------------------------------------------------------------------------------------------------




--------------------------------------- Iteration      1(   4)  ---------------------------------------


     EDDAV:  cpu time    2.1109: real time    2.2667
       DOS:  cpu time    0.0005: real time    0.0005
    --------------------------------------------
      LOOP:  cpu time    2.1115: real time    2.2672

 eigenvalue-minimisations  :  1228
 total energy-change (2. order) :-0.8567453E-01  (-0.8564324E-01)
 number of electron      18.0000000 magnetization 
 augmentation part       18.0000000 magnetization 

 Free energy of the ion-electron system (eV)
  ---------------------------------------------------
  alpha Z        PSCENC =         2.30757812
  Ewald energy   TEWEN  =      -676.11035698
  -Hartree energ DENC   =       -42.97582009
  -exchange      EXHF   =         0.00000000
  -V(xc)+E(xc)   XCENC  =       -84.04960295
  PAW double counting   =       623.23253030     -507.77874573
  entropy T*S    EENTRO =        -0.00000000
  eigenvalues    EBANDS =         6.13237640
  atomic energy  EATOM  =       669.81418755
  Solvation  Ediel_sol  =         0.00000000
  ---------------------------------------------------
  free energy    TOTEN  =        -9.42785338 eV

  energy without entropy =       -9.42785338  energy(sigma->0) =       -9.42785338


--------------------------------------------------------------------------------------------------------




--------------------------------------- Iteration      1(   5)  ---------------------------------------


     EDDAV:  cpu time    1.8032: real time    1.8290
       DOS:  cpu time    0.0006: real time    0.0006
    CHARGE:  cpu time    0.1924: real time    0.2006
    MIXING:  cpu time    0.0049: real time    0.0057
    --------------------------------------------
      LOOP:  cpu time    2.0011: real time    2.0359

 eigenvalue-minimisations  :  1160
 total energy-change (2. order) :-0.1359759E-02  (-0.1359756E-02)
 number of electron      18.0000001 magnetization 
 augmentation part       -3.6022698 magnetization 

 Broyden mixing:
  rms(total) = 0.12396E+01    rms(broyden)= 0.12396E+01
  rms(prec ) = 0.12572E+01
  weight for this iteration     100.00

 Free energy of the ion-electron system (eV)
  ---------------------------------------------------
  alpha Z        PSCENC =         2.30757812
  Ewald energy   TEWEN  =      -676.11035698
  -Hartree energ DENC   =       -42.97582009
  -exchange      EXHF   =         0.00000000
  -V(xc)+E(xc)   XCENC  =       -84.04960295
  PAW double counting   =       623.23253030     -507.77874573
  entropy T*S    EENTRO =        -0.00000000
  eigenvalues    EBANDS =         6.13101664
  atomic energy  EATOM  =       669.81418755
  Solvation  Ediel_sol  =         0.00000000
  ---------------------------------------------------
  free energy    TOTEN  =        -9.42921314 eV

  energy without entropy =       -9.42921314  energy(sigma->0) =       -9.42921314


--------------------------------------------------------------------------------------------------------




--------------------------------------- Iteration      1(   6)  ---------------------------------------


    POTLOK:  cpu time    0.1200: real time    0.1493
    SETDIJ:  cpu time    0.2859: real time    0.3121
     EDDAV:  cpu time    2.0326: real time    2.3310
       DOS:  cpu time    0.0003: real time    0.0003
    CHARGE:  cpu time    0.1289: real time    0.1413
    MIXING:  cpu time    0.0066: real time    0.0228
    --------------------------------------------
      LOOP:  cpu time    2.5743: real time    2.9568

 eigenvalue-minimisations  :  1028
 total energy-change (2. order) : 0.1462158E-01  (-0.1840103E-02)
 number of electron      18.0000001 magnetization 
 augmentation part       -3.6066534 magnetization 

 Broyden mixing:
  rms(total) = 0.78434E+00    rms(broyden)= 0.78434E+00
  rms(prec ) = 0.79406E+00
  weight for this iteration     100.00

 eigenvalues of (default mixing * dielectric matrix)
  average eigenvalue GAMMA=   2.7178
  2.7178

 Free energy of the ion-electron system (eV)
  ---------------------------------------------------
  alpha Z        PSCENC =         2.30757812
  Ewald energy   TEWEN  =      -676.11035698
  -Hartree energ DENC   =       -42.93861111
  -exchange      EXHF   =         0.00000000
  -V(xc)+E(xc)   XCENC  =       -84.00713629
  PAW double counting   =       925.30691372     -809.89618397
  entropy T*S    EENTRO =        -0.00000000
  eigenvalues    EBANDS =         6.10901741
  atomic energy  EATOM  =       669.81418755
  Solvation  Ediel_sol  =         0.00000000
  ---------------------------------------------------
  free energy    TOTEN  =        -9.41459156 eV

  energy without entropy =       -9.41459156  energy(sigma->0) =       -9.41459156


--------------------------------------------------------------------------------------------------------




--------------------------------------- Iteration      1(   7)  ---------------------------------------


    POTLOK:  cpu time    0.1098: real time    0.1423
    SETDIJ:  cpu time    0.2641: real time    0.2749
     EDDAV:  cpu time    1.7300: real time    1.7794
       DOS:  cpu time    0.0004: real time    0.0004
    CHARGE:  cpu time    0.1258: real time    0.1316
    MIXING:  cpu time    0.0032: real time    0.0056
    --------------------------------------------
      LOOP:  cpu time    2.2334: real time    2.3343

 eigenvalue-minimisations  :  1004
 total energy-change (2. order) : 0.1714081E-02  (-0.3871959E-02)
 number of electron      18.0000001 magnetization 
 augmentation part       -3.6119194 magnetization 

 Broyden mixing:
  rms(total) = 0.29075E-01    rms(broyden)= 0.29075E-01
  rms(prec ) = 0.38409E-01
  weight for this iteration     100.00

 eigenvalues of (default mixing * dielectric matrix)
  average eigenvalue GAMMA=   2.1218
  1.7752  2.4685

 Free energy of the ion-electron system (eV)
  ---------------------------------------------------
  alpha Z        PSCENC =         2.30757812
  Ewald energy   TEWEN  =      -676.11035698
  -Hartree energ DENC   =       -43.08851245
  -exchange      EXHF   =         0.00000000
  -V(xc)+E(xc)   XCENC  =       -83.91570343
  PAW double counting   =      1615.93835692    -1500.59313200
  entropy T*S    EENTRO =        -0.00000000
  eigenvalues    EBANDS =         6.23470480
  atomic energy  EATOM  =       669.81418755
  Solvation  Ediel_sol  =         0.00000000
  ---------------------------------------------------
  free energy    TOTEN  =        -9.41287748 eV

  energy without entropy =       -9.41287748  energy(sigma->0) =       -9.41287748


--------------------------------------------------------------------------------------------------------




--------------------------------------- Iteration      1(   8)  ---------------------------------------


    POTLOK:  cpu time    0.1065: real time    0.1095
    SETDIJ:  cpu time    0.2499: real time    0.2556
     EDDAV:  cpu time    1.6004: real time    1.6369
       DOS:  cpu time    0.0004: real time    0.0004
    CHARGE:  cpu time    0.1300: real time    0.1342
    MIXING:  cpu time    0.0035: real time    0.0036
    --------------------------------------------
      LOOP:  cpu time    2.0908: real time    2.1401

 eigenvalue-minimisations  :   920
 total energy-change (2. order) : 0.6098486E-03  (-0.7113754E-03)
 number of electron      18.0000001 magnetization 
 augmentation part       -3.6105153 magnetization 

 Broyden mixing:
  rms(total) = 0.15747E-01    rms(broyden)= 0.15747E-01
  rms(prec ) = 0.16329E-01
  weight for this iteration     100.00

 eigenvalues of (default mixing * dielectric matrix)
  average eigenvalue GAMMA=   1.4634
  2.4811  1.7091  0.2001

 Free energy of the ion-electron system (eV)
  ---------------------------------------------------
  alpha Z        PSCENC =         2.30757812
  Ewald energy   TEWEN  =      -676.11035698
  -Hartree energ DENC   =       -43.15850479
  -exchange      EXHF   =         0.00000000
  -V(xc)+E(xc)   XCENC  =       -83.92014228
  PAW double counting   =      1569.62069394    -1454.27045585
  entropy T*S    EENTRO =        -0.00000000
  eigenvalues    EBANDS =         6.30473267
  atomic energy  EATOM  =       669.81418755
  Solvation  Ediel_sol  =         0.00000000
  ---------------------------------------------------
  free energy    TOTEN  =        -9.41226763 eV

  energy without entropy =       -9.41226763  energy(sigma->0) =       -9.41226763


--------------------------------------------------------------------------------------------------------




--------------------------------------- Iteration      1(   9)  ---------------------------------------


    POTLOK:  cpu time    0.0985: real time    0.1007
    SETDIJ:  cpu time    0.2490: real time    0.2533
     EDDAV:  cpu time    2.0126: real time    2.0551
       DOS:  cpu time    0.0004: real time    0.0004
    CHARGE:  cpu time    0.1291: real time    0.1322
    MIXING:  cpu time    0.0034: real time    0.0034
    --------------------------------------------
      LOOP:  cpu time    2.4931: real time    2.5451

 eigenvalue-minimisations  :  1214
 total energy-change (2. order) :-0.3141096E-04  (-0.1993290E-04)
 number of electron      18.0000001 magnetization 
 augmentation part       -3.6105737 magnetization 

 Broyden mixing:
  rms(total) = 0.11422E-01    rms(broyden)= 0.11422E-01
  rms(prec ) = 0.11937E-01
  weight for this iteration     100.00

 eigenvalues of (default mixing * dielectric matrix)
  average eigenvalue GAMMA=   1.8933
  2.4439  1.2833  1.9229  1.9229

 Free energy of the ion-electron system (eV)
  ---------------------------------------------------
  alpha Z        PSCENC =         2.30757812
  Ewald energy   TEWEN  =      -676.11035698
  -Hartree energ DENC   =       -43.15789949
  -exchange      EXHF   =         0.00000000
  -V(xc)+E(xc)   XCENC  =       -83.91980379
  PAW double counting   =      1567.19476122    -1451.84450420
  entropy T*S    EENTRO =        -0.00000000
  eigenvalues    EBANDS =         6.30373854
  atomic energy  EATOM  =       669.81418755
  Solvation  Ediel_sol  =         0.00000000
  ---------------------------------------------------
  free energy    TOTEN  =        -9.41229904 eV

  energy without entropy =       -9.41229904  energy(sigma->0) =       -9.41229904


--------------------------------------------------------------------------------------------------------




--------------------------------------- Iteration      1(  10)  ---------------------------------------


    POTLOK:  cpu time    0.0993: real time    0.1014
    SETDIJ:  cpu time    0.2423: real time    0.2451
     EDDAV:  cpu time    1.6338: real time    1.6730
       DOS:  cpu time    0.0004: real time    0.0004
    CHARGE:  cpu time    0.1446: real time    0.1552
    MIXING:  cpu time    0.0062: real time    0.0068
    --------------------------------------------
      LOOP:  cpu time    2.1264: real time    2.1818

 eigenvalue-minimisations  :   932
 total energy-change (2. order) :-0.4258056E-04  (-0.5518704E-05)
 number of electron      18.0000001 magnetization 
 augmentation part       -3.6107387 magnetization 

 Broyden mixing:
  rms(total) = 0.27291E-02    rms(broyden)= 0.27291E-02
  rms(prec ) = 0.34771E-02
  weight for this iteration     100.00

 eigenvalues of (default mixing * dielectric matrix)
  average eigenvalue GAMMA=   1.7547
  2.6321  2.5382  1.6101  1.1227  0.8705

 Free energy of the ion-electron system (eV)
  ---------------------------------------------------
  alpha Z        PSCENC =         2.30757812
  Ewald energy   TEWEN  =      -676.11035698
  -Hartree energ DENC   =       -43.16675325
  -exchange      EXHF   =         0.00000000
  -V(xc)+E(xc)   XCENC  =       -83.91781673
  PAW double counting   =      1561.99671322    -1446.64631772
  entropy T*S    EENTRO =        -0.00000000
  eigenvalues    EBANDS =         6.31042418
  atomic energy  EATOM  =       669.81418755
  Solvation  Ediel_sol  =         0.00000000
  ---------------------------------------------------
  free energy    TOTEN  =        -9.41234162 eV

  energy without entropy =       -9.41234162  energy(sigma->0) =       -9.41234162


--------------------------------------------------------------------------------------------------------




--------------------------------------- Iteration      1(  11)  ---------------------------------------


    POTLOK:  cpu time    0.1086: real time    0.1169
    SETDIJ:  cpu time    0.2587: real time    0.2719
     EDDAV:  cpu time    1.9170: real time    1.9917
       DOS:  cpu time    0.0008: real time    0.0008
    CHARGE:  cpu time    0.1363: real time    0.1442
    MIXING:  cpu time    0.0030: real time    0.0030
    --------------------------------------------
      LOOP:  cpu time    2.4245: real time    2.5286

 eigenvalue-minimisations  :  1034
 total energy-change (2. order) : 0.5793325E-05  (-0.1974350E-05)
 number of electron      18.0000001 magnetization 
 augmentation part       -3.6106525 magnetization 

 Broyden mixing:
  rms(total) = 0.15048E-02    rms(broyden)= 0.15048E-02
  rms(prec ) = 0.16011E-02
  weight for this iteration     100.00

 eigenvalues of (default mixing * dielectric matrix)
  average eigenvalue GAMMA=   1.5105
  2.5670  2.5670  1.5977  1.1282  0.7925  0.4107

 Free energy of the ion-electron system (eV)
  ---------------------------------------------------
  alpha Z        PSCENC =         2.30757812
  Ewald energy   TEWEN  =      -676.11035698
  -Hartree energ DENC   =       -43.17608734
  -exchange      EXHF   =         0.00000000
  -V(xc)+E(xc)   XCENC  =       -83.91743323
  PAW double counting   =      1560.96977688    -1445.61927547
  entropy T*S    EENTRO =        -0.00000000
  eigenvalues    EBANDS =         6.31927465
  atomic energy  EATOM  =       669.81418755
  Solvation  Ediel_sol  =         0.00000000
  ---------------------------------------------------
  free energy    TOTEN  =        -9.41233583 eV

  energy without entropy =       -9.41233583  energy(sigma->0) =       -9.41233583


--------------------------------------------------------------------------------------------------------




--------------------------------------- Iteration      1(  12)  ---------------------------------------


    POTLOK:  cpu time    0.0991: real time    0.1019
    SETDIJ:  cpu time    0.2480: real time    0.2509
     EDDAV:  cpu time    1.3835: real time    1.4133
       DOS:  cpu time    0.0004: real time    0.0004
    --------------------------------------------
      LOOP:  cpu time    1.7310: real time    1.7665

 eigenvalue-minimisations  :   768
 total energy-change (2. order) :-0.1396094E-06  (-0.2064861E-06)
 number of electron      18.0000001 magnetization 
 augmentation part       -3.6106525 magnetization 

 Free energy of the ion-electron system (eV)
  ---------------------------------------------------
  alpha Z        PSCENC =         2.30757812
  Ewald energy   TEWEN  =      -676.11035698
  -Hartree energ DENC   =       -43.17779297
  -exchange      EXHF   =         0.00000000
  -V(xc)+E(xc)   XCENC  =       -83.91734871
  PAW double counting   =      1561.57722732    -1446.22676837
  entropy T*S    EENTRO =        -0.00000000
  eigenvalues    EBANDS =         6.32093808
  atomic energy  EATOM  =       669.81418755
  Solvation  Ediel_sol  =         0.00000000
  ---------------------------------------------------
  free energy    TOTEN  =        -9.41233597 eV

  energy without entropy =       -9.41233597  energy(sigma->0) =       -9.41233597


--------------------------------------------------------------------------------------------------------




 average (electrostatic) potential at core
  the test charge radii are     1.1897
  (the norm of the test charge is              1.0000)
       1 -88.9667       2 -88.9667       3 -88.9667



 E-fermi :   6.0851     XC(G=0):  -9.0922     alpha+bet :-10.6160


 k-point     1 :       0.0000    0.0000    0.0000
  band No.  band energies     occupation 
      1      -7.6384      2.00000
      2      -4.3129      2.00000
      3      -4.3129      2.00000
      4       2.9364      2.00000
      5       3.2604      2.00000
      6       3.2604      2.00000
      7       4.3248      2.00000
      8       4.3248      2.00000
      9       5.1572      2.00000
     10       7.0263      0.00000
     11       7.0263      0.00000
     12       7.6243      0.00000
     13      10.9668      0.00000
     14      10.9668      0.00000

 k-point     2 :       0.1429    0.0000    0.0000
  band No.  band energies     occupation 
      1      -7.5001      2.00000
      2      -4.3577      2.00000
      3      -4.2745      2.00000
      4       2.0556      2.00000
      5       2.6582      2.00000
      6       2.9640      2.00000
      7       4.7065      2.00000
      8       5.0213      2.00000
      9       5.3360      2.00000
     10       6.7531      0.00000
     11       6.9360      0.00000
     12       7.4722      0.00000
     13      10.5206      0.00000
     14      10.9476      0.00000

 k-point     3 :       0.2857    0.0000    0.0000
  band No.  band energies     occupation 
      1      -7.1193      2.00000
      2      -4.5824      2.00000
      3      -4.1781      2.00000
      4       1.2502      2.00000
      5       1.9633      2.00000
      6       2.5015      2.00000
      7       4.1019      2.00000
      8       5.0512      2.00000
      9       5.1989      2.00000
     10       6.8578      0.00000
     11       7.0618      0.00000
     12       8.2942      0.00000
     13       9.5655      0.00000
     14      11.5415      0.00000

 k-point     4 :       0.4286    0.0000    0.0000
  band No.  band energies     occupation 
      1      -6.6681      2.00000
      2      -4.9738      2.00000
      3      -4.0909      2.00000
      4       1.1227      2.00000
      5       1.6010      2.00000
      6       2.2973      2.00000
      7       2.8221      2.00000
      8       4.9969      2.00000
      9       5.1988      2.00000
     10       6.8609      0.00000
     11       6.9426      0.00000
     12       9.0042      0.00000
     13       9.5659      0.00000
     14      12.9202      0.00000

 k-point     5 :       0.1429    0.1429    0.0000
  band No.  band energies     occupation 
      1      -7.2390      2.00000
      2      -4.4547      2.00000
      3      -4.2515      2.00000
      4       1.5054      2.00000
      5       1.7953      2.00000
      6       3.0569      2.00000
      7       4.2793      2.00000
      8       4.9255      2.00000
      9       4.9476      2.00000
     10       7.1802      0.00000
     11       7.3619      0.00000
     12       7.7197      0.00000
     13      10.3020      0.00000
     14      10.4752      0.00000

 k-point     6 :       0.2857    0.1429    0.0000
  band No.  band energies     occupation 
      1      -6.8023      2.00000
      2      -4.7350      2.00000
      3      -4.2410      2.00000
      4       1.2019      2.00000
      5       1.4910      2.00000
      6       2.6320      2.00000
      7       3.4845      2.00000
      8       4.2424      2.00000
      9       4.5175      2.00000
     10       7.5786      0.00000
     11       7.8254      0.00000
     12       8.8447      0.00000
     13       9.7607      0.00000
     14      11.2378      0.00000

 k-point     7 :       0.4286    0.1429    0.0000
  band No.  band energies     occupation 
      1      -6.5176      2.00000
      2      -4.9828      2.00000
      3      -4.2316      2.00000
      4       1.2452      2.00000
      5       1.5369      2.00000
      6       2.5171      2.00000
      7       2.5762      2.00000
      8       4.2584      2.00000
      9       4.3125      2.00000
     10       7.5988      0.00000
     11       7.9008      0.00000
     12       9.5444      0.00000
     13       9.6162      0.00000
     14      12.5426      0.00000

 k-point     8 :       0.2857    0.2857    0.0000
  band No.  band energies     occupation 
      1      -6.4659      2.00000
      2      -4.7834      2.00000
      3      -4.5043      2.00000
      4       1.4292      2.00000
      5       1.4473      2.00000
      6       2.7076      2.00000
      7       3.0869      2.00000
      8       3.3787      2.00000
      9       3.4977      2.00000
     10       8.5374      0.00000
     11       8.8751      0.00000
     12       9.0626      0.00000
     13      10.6230      0.00000
     14      11.2153      0.00000

 k-point     9 :       0.0000    0.0000    0.2000
  band No.  band energies     occupation 
      1      -7.4930      2.00000
      2      -5.4223      2.00000
      3      -3.1700      2.00000
      4       2.7049      2.00000
      5       3.0196      2.00000
      6       3.4929      2.00000
      7       4.4548      2.00000
      8       4.4751      2.00000
      9       5.1446      2.00000
     10       6.7772      0.00000
     11       6.8174      0.00000
     12       7.2605      0.00000
     13      10.5120      0.00000
     14      11.6017      0.00000

 k-point    10 :       0.1429    0.0000    0.2000
  band No.  band energies     occupation 
      1      -7.3565      2.00000
      2      -5.3650      2.00000
      3      -3.2712      2.00000
      4       2.2118      2.00000
      5       2.2542      2.00000
      6       3.0792      2.00000
      7       4.8860      2.00000
      8       5.0534      2.00000
      9       5.2010      2.00000
     10       6.6552      0.00000
     11       6.7032      0.00000
     12       7.4130      0.00000
     13      10.0357      0.00000
     14      11.7304      0.00000

 k-point    11 :       0.2857    0.0000    0.2000
  band No.  band energies     occupation 
      1      -6.9788      2.00000
      2      -5.2859      2.00000
      3      -3.5347      2.00000
      4       1.1002      2.00000
      5       1.6924      2.00000
      6       2.6130      2.00000
      7       4.7625      2.00000
      8       4.9239      2.00000
      9       5.4976      2.00000
     10       6.6768      0.00000
     11       7.1957      0.00000
     12       7.4088      0.00000
     13       9.4150      0.00000
     14      12.2494      0.00000

 k-point    12 :       0.4286    0.0000    0.2000
  band No.  band energies     occupation 
      1      -6.5423      2.00000
      2      -5.2904      2.00000
      3      -3.8929      2.00000
      4       0.7537      2.00000
      5       1.4302      2.00000
      6       2.3593      2.00000
      7       4.1288      2.00000
      8       4.6207      2.00000
      9       4.7114      2.00000
     10       7.0085      0.00000
     11       7.5732      0.00000
     12       8.4692      0.00000
     13       9.3356      0.00000
     14      12.9913      0.00000

 k-point    13 :      -0.4286    0.0000    0.2000
  band No.  band energies     occupation 
      1      -6.5711      2.00000
      2      -5.1271      2.00000
      3      -4.1147      2.00000
      4       1.2400      2.00000
      5       1.5135      2.00000
      6       2.4357      2.00000
      7       3.1588      2.00000
      8       4.4592      2.00000
      9       4.6799      2.00000
     10       7.1338      0.00000
     11       7.7871      0.00000
     12       9.3474      0.00000
     13       9.6817      0.00000
     14      12.3477      0.00000

 k-point    14 :      -0.2857    0.0000    0.2000
  band No.  band energies     occupation 
      1      -6.9961      2.00000
      2      -5.1570      2.00000
      3      -3.7660      2.00000
      4       1.6572      2.00000
      5       2.1890      2.00000
      6       2.8188      2.00000
      7       3.1687      2.00000
      8       4.3928      2.00000
      9       4.7788      2.00000
     10       7.2730      0.00000
     11       7.8617      0.00000
     12       8.8697      0.00000
     13      10.3442      0.00000
     14      11.3978      0.00000

 k-point    15 :      -0.1429    0.0000    0.2000
  band No.  band energies     occupation 
      1      -7.3588      2.00000
      2      -5.3471      2.00000
      3      -3.3135      2.00000
      4       2.1181      2.00000
      5       2.8094      2.00000
      6       3.1907      2.00000
      7       4.2916      2.00000
      8       4.5716      2.00000
      9       4.7979      2.00000
     10       7.1309      0.00000
     11       7.2581      0.00000
     12       7.6508      0.00000
     13      10.5863      0.00000
     14      11.2463      0.00000

 k-point    16 :       0.1429    0.1429    0.2000
  band No.  band energies     occupation 
      1      -7.1033      2.00000
      2      -5.2534      2.00000
      3      -3.5395      2.00000
      4       1.5668      2.00000
      5       1.9411      2.00000
      6       2.9492      2.00000
      7       3.8839      2.00000
      8       4.5922      2.00000
      9       5.5212      2.00000
     10       6.8469      0.00000
     11       7.4726      0.00000
     12       7.9979      0.00000
     13      10.1654      0.00000
     14      11.0832      0.00000

 k-point    17 :       0.2857    0.1429    0.2000
  band No.  band energies     occupation 
      1      -6.6734      2.00000
      2      -5.2215      2.00000
      3      -3.8581      2.00000
      4       0.8538      2.00000
      5       1.5898      2.00000
      6       2.5035      2.00000
      7       3.4547      2.00000
      8       4.7491      2.00000
      9       5.2262      2.00000
     10       7.0198      0.00000
     11       7.7630      0.00000
     12       8.3127      0.00000
     13       9.8888      0.00000
     14      11.6429      0.00000

 k-point    18 :       0.4286    0.1429    0.2000
  band No.  band energies     occupation 
      1      -6.4130      2.00000
      2      -5.1926      2.00000
      3      -4.1433      2.00000
      4       0.9433      2.00000
      5       1.3294      2.00000
      6       2.4565      2.00000
      7       3.3123      2.00000
      8       3.8257      2.00000
      9       5.3025      2.00000
     10       6.9734      0.00000
     11       8.2884      0.00000
     12       8.9310      0.00000
     13       9.9313      0.00000
     14      12.5683      0.00000

 k-point    19 :      -0.4286    0.1429    0.2000
  band No.  band energies     occupation 
      1      -6.6907      2.00000
      2      -5.1042      2.00000
      3      -4.0272      2.00000
      4       1.2210      2.00000
      5       1.6925      2.00000
      6       2.6412      2.00000
      7       3.0221      2.00000
      8       3.9612      2.00000
      9       5.4691      2.00000
     10       6.8981      0.00000
     11       8.0735      0.00000
     12       9.1975      0.00000
     13      10.2134      0.00000
     14      11.2931      0.00000

 k-point    20 :       0.2857    0.2857    0.2000
  band No.  band energies     occupation 
      1      -6.3599      2.00000
      2      -5.1250      2.00000
      3      -4.2570      2.00000
      4       0.9192      2.00000
      5       1.4483      2.00000
      6       2.2082      2.00000
      7       3.0329      2.00000
      8       4.1540      2.00000
      9       4.7648      2.00000
     10       7.8464      0.00000
     11       8.3048      0.00000
     12       8.9733      0.00000
     13      10.8222      0.00000
     14      11.2711      0.00000

 k-point    21 :       0.0000    0.0000    0.4000
  band No.  band energies     occupation 
      1      -7.0616      2.00000
      2      -6.3603      2.00000
      3      -2.3183      2.00000
      4       2.1428      2.00000
      5       3.2243      2.00000
      6       3.4278      2.00000
      7       4.6420      2.00000
      8       4.8301      2.00000
      9       5.0737      2.00000
     10       6.4805      0.00000
     11       6.5292      0.00000
     12       6.6693      0.00000
     13      10.0677      0.00000
     14      11.2138      0.00000

 k-point    22 :       0.1429    0.0000    0.4000
  band No.  band energies     occupation 
      1      -6.9338      2.00000
      2      -6.2601      2.00000
      3      -2.5734      2.00000
      4       1.9568      2.00000
      5       2.6955      2.00000
      6       3.2174      2.00000
      7       4.3283      2.00000
      8       4.6374      2.00000
      9       4.8578      2.00000
     10       6.7321      0.00000
     11       6.9303      0.00000
     12       7.6871      0.00000
     13      10.1431      0.00000
     14      11.0751      0.00000

 k-point    23 :       0.2857    0.0000    0.4000
  band No.  band energies     occupation 
      1      -6.5843      2.00000
      2      -6.0189      2.00000
      3      -3.1827      2.00000
      4       1.0976      2.00000
      5       2.0686      2.00000
      6       2.8095      2.00000
      7       4.0958      2.00000
      8       4.2725      2.00000
      9       5.3105      2.00000
     10       7.0902      0.00000
     11       7.6468      0.00000
     12       7.8528      0.00000
     13      10.0039      0.00000
     14      11.8856      0.00000

 k-point    24 :       0.4286    0.0000    0.4000
  band No.  band energies     occupation 
      1      -6.2306      2.00000
      2      -5.7342      2.00000
      3      -3.8292      2.00000
      4       0.3992      2.00000
      5       1.9875      2.00000
      6       2.5384      2.00000
      7       3.7542      2.00000
      8       4.0365      2.00000
      9       5.7413      2.00000
     10       6.8388      0.00000
     11       7.6826      0.00000
     12       8.4221      0.00000
     13      10.2245      0.00000
     14      11.6963      0.00000

 k-point    25 :      -0.4286    0.0000    0.4000
  band No.  band energies     occupation 
      1      -6.2855      2.00000
      2      -5.6237      2.00000
      3      -3.9382      2.00000
      4       0.5770      2.00000
      5       2.1592      2.00000
      6       2.4928      2.00000
      7       3.6623      2.00000
      8       3.9600      2.00000
      9       4.7968      2.00000
     10       7.6841      0.00000
     11       8.0210      0.00000
     12       8.5288      0.00000
     13      10.5192      0.00000
     14      11.3136      0.00000

 k-point    26 :      -0.2857    0.0000    0.4000
  band No.  band energies     occupation 
      1      -6.6234      2.00000
      2      -5.9443      2.00000
      3      -3.2972      2.00000
      4       1.4527      2.00000
      5       2.5156      2.00000
      6       2.7241      2.00000
      7       3.7658      2.00000
      8       3.8254      2.00000
      9       4.4244      2.00000
     10       7.5919      0.00000
     11       8.1424      0.00000
     12       8.6247      0.00000
     13      10.7815      0.00000
     14      11.3160      0.00000

 k-point    27 :      -0.1429    0.0000    0.4000
  band No.  band energies     occupation 
      1      -6.9390      2.00000
      2      -6.2501      2.00000
      3      -2.5994      2.00000
      4       2.0380      2.00000
      5       3.0074      2.00000
      6       3.2868      2.00000
      7       3.9765      2.00000
      8       4.2665      2.00000
      9       4.6668      2.00000
     10       7.0245      0.00000
     11       7.3571      0.00000
     12       7.5868      0.00000
     13      10.4543      0.00000
     14      11.0389      0.00000

 k-point    28 :       0.1429    0.1429    0.4000
  band No.  band energies     occupation 
      1      -6.7053      2.00000
      2      -6.0657      2.00000
      3      -3.0409      2.00000
      4       1.6166      2.00000
      5       2.2216      2.00000
      6       2.7747      2.00000
      7       3.6244      2.00000
      8       4.6145      2.00000
      9       5.0794      2.00000
     10       6.7958      0.00000
     11       7.8764      0.00000
     12       8.2609      0.00000
     13      10.4471      0.00000
     14      11.2380      0.00000

 k-point    29 :       0.2857    0.1429    0.4000
  band No.  band energies     occupation 
      1      -6.3218      2.00000
      2      -5.8136      2.00000
      3      -3.6405      2.00000
      4       0.7455      2.00000
      5       1.6839      2.00000
      6       2.2283      2.00000
      7       3.6523      2.00000
      8       5.1368      2.00000
      9       5.7172      2.00000
     10       6.6962      0.00000
     11       7.3295      0.00000
     12       8.4838      0.00000
     13      10.3416      0.00000
     14      12.1187      0.00000

 k-point    30 :       0.4286    0.1429    0.4000
  band No.  band energies     occupation 
      1      -6.1355      2.00000
      2      -5.6036      2.00000
      3      -4.0316      2.00000
      4       0.4817      2.00000
      5       1.4691      2.00000
      6       2.0142      2.00000
      7       3.9183      2.00000
      8       4.9208      2.00000
      9       5.4221      2.00000
     10       7.1145      0.00000
     11       7.5473      0.00000
     12       8.3829      0.00000
     13      10.5146      0.00000
     14      11.7744      0.00000

 k-point    31 :      -0.4286    0.1429    0.4000
  band No.  band energies     occupation 
      1      -6.3597      2.00000
      2      -5.7415      2.00000
      3      -3.7188      2.00000
      4       1.0133      2.00000
      5       1.6171      2.00000
      6       2.1658      2.00000
      7       3.9224      2.00000
      8       4.6555      2.00000
      9       4.9394      2.00000
     10       7.3560      0.00000
     11       7.9376      0.00000
     12       8.4658      0.00000
     13      10.8163      0.00000
     14      11.4338      0.00000

 k-point    32 :       0.2857    0.2857    0.4000
  band No.  band energies     occupation 
      1      -6.0636      2.00000
      2      -5.6055      2.00000
      3      -4.0509      2.00000
      4       0.7618      2.00000
      5       1.0317      2.00000
      6       1.4304      2.00000
      7       4.3691      2.00000
      8       5.4211      2.00000
      9       5.8540      2.00000
     10       6.6413      0.00000
     11       7.4639      0.00000
     12       8.0565      0.00000
     13      11.2793      0.00000
     14      11.9107      0.00000


--------------------------------------------------------------------------------------------------------


 soft charge-density along one line, spin component           1
         0         1         2         3         4         5         6         7         8         9
 total charge-density along one line

 pseudopotential strength for first ion, spin component:           1
 51.627  56.172   0.048   0.000  -0.027   0.069   0.000  -0.040
 56.172  61.120   0.052   0.000  -0.030   0.075   0.000  -0.043
  0.048   0.052  12.724  -0.007  -0.009  18.341  -0.009  -0.013
  0.000   0.000  -0.007  12.730  -0.011  -0.009  18.349  -0.016
 -0.027  -0.030  -0.009  -0.011  12.713  -0.013  -0.016  18.325
  0.069   0.075  18.341  -0.009  -0.013  26.446  -0.013  -0.019
  0.000   0.000  -0.009  18.349  -0.016  -0.013  26.458  -0.023
 -0.040  -0.043  -0.013  -0.016  18.325  -0.019  -0.023  26.424
 -0.014  -0.015  -0.005   0.001   0.009  -0.007   0.001   0.013
 -0.010  -0.011   0.001   0.007   0.001   0.001   0.011   0.001
  0.010   0.010  -0.006   0.000   0.003  -0.009   0.000   0.005
 -0.017  -0.019   0.001  -0.004  -0.001   0.001  -0.006  -0.001
 -0.008  -0.009  -0.009  -0.001  -0.005  -0.013  -0.001  -0.008
 total augmentation occupancy for first ion, spin component:           1
 13.658 -10.065  -1.955   0.000   1.129   0.508   0.000  -0.293   0.110   0.088  -0.105   0.152   0.063
-10.065   8.695   1.664   0.000  -0.961  -0.449   0.000   0.259  -0.098  -0.079   0.094  -0.137  -0.057
 -1.955   1.664   2.787  -0.124  -0.118  -0.706   0.104   0.114  -0.028  -0.047   0.014  -0.030  -0.049
  0.000   0.000  -0.124   2.981  -0.215   0.104  -0.845   0.179  -0.025   0.111  -0.000  -0.064   0.044
  1.129  -0.961  -0.118  -0.215   2.650   0.114   0.179  -0.574   0.049  -0.025  -0.008   0.047  -0.029
  0.508  -0.449  -0.706   0.104   0.114   0.252  -0.040  -0.038   0.007   0.016  -0.003   0.008   0.012
  0.000   0.000   0.104  -0.845   0.179  -0.040   0.310  -0.068   0.010  -0.034   0.000   0.020  -0.017
 -0.293   0.259   0.114   0.179  -0.574  -0.038  -0.068   0.207  -0.012   0.010   0.002  -0.016   0.007
  0.110  -0.098  -0.028  -0.025   0.049   0.007   0.010  -0.012   0.010  -0.003   0.001   0.006   0.000
  0.088  -0.079  -0.047   0.111  -0.025   0.016  -0.034   0.010  -0.003   0.024  -0.002  -0.005   0.009
 -0.105   0.094   0.014  -0.000  -0.008  -0.003   0.000   0.002   0.001  -0.002   0.008  -0.004   0.000
  0.152  -0.137  -0.030  -0.064   0.047   0.008   0.020  -0.016   0.006  -0.005  -0.004   0.018  -0.003
  0.063  -0.057  -0.049   0.044  -0.029   0.012  -0.017   0.007   0.000   0.009   0.000  -0.003   0.010


------------------------ aborting loop because EDIFF is reached ----------------------------------------


    CHARGE:  cpu time    0.2011: real time    0.2048
    FORLOC:  cpu time    0.0081: real time    0.0084
    FORNL :  cpu time    0.6169: real time    0.6278
    STRESS:  cpu time    1.0742: real time    1.1117
    FORCOR:  cpu time    0.0959: real time    0.0993
    FORHAR:  cpu time    0.0244: real time    0.0246
    MIXING:  cpu time    0.0031: real time    0.0032
    OFIELD:  cpu time    0.0000: real time    0.0000

  FORCE on cell =-STRESS in cart. coord.  units (eV):
  Direction    XX          YY          ZZ          XY          YZ          ZX
  --------------------------------------------------------------------------------------
  Alpha Z     2.30758     2.30758     2.30758
  Ewald    -238.38556  -238.38556  -199.33984     0.00000     0.00000     0.00000
  Hartree    11.12671    11.12671    20.92819    -0.00000    -0.00000    -0.00000
  E(xc)     -70.49351   -70.49351   -70.02959    -0.00000    -0.00000     0.00000
  Local    -111.44451  -111.44446  -151.01705    -0.00000    -0.00000     0.00000
  n-local   331.82894   334.24156   328.90267     0.88577    -1.18166     0.33608
  augment   -81.10853   -81.10858   -78.85787    -0.00000     0.00000    -0.00000
  Kinetic   150.46607   161.38712   148.40363     5.85380     0.75848    -1.46848
  Fock        0.00000     0.00000     0.00000     0.00000     0.00000     0.00000
  -------------------------------------------------------------------------------------
  Total       0.96402     0.96402     1.29773     0.00000    -0.00000     0.00000
  in kB      15.24738    15.24738    20.52555     0.00000    -0.00000     0.00000
  external pressure =       17.01 kB  Pullay stress =        0.00 kB


 VOLUME and BASIS-vectors are now :
 -----------------------------------------------------------------------------
  energy-cutoff  :      500.00
  volume of cell :      101.30
      direct lattice vectors                 reciprocal lattice vectors
     2.223465000 -3.851154349  0.000000000     0.224874239 -0.129831202  0.000000000
     2.223465000  3.851154349  0.000000000     0.224874239  0.129831202 -0.000000000
     0.000000000  0.000000000  5.914920000    -0.000000000  0.000000000  0.169063994

  length of vectors
     4.446930000  4.446930000  5.914920000     0.259662405  0.259662405  0.169063994


 FORCES acting on ions
    electron-ion (+dipol)            ewald-force                    non-local-force                 convergence-correction
 -----------------------------------------------------------------------------------------------
   -.599E+01 0.104E+02 0.146E-06   0.860E+01 -.149E+02 -.223E-09   -.252E+01 0.437E+01 -.555E-16   0.561E-03 -.971E-03 -.758E-10
   -.599E+01 -.104E+02 -.978E-07   0.860E+01 0.149E+02 0.223E-09   -.252E+01 -.437E+01 0.000E+00   0.561E-03 0.971E-03 0.758E-10
   0.120E+02 0.129E-07 -.458E-07   -.172E+02 -.686E-16 0.711E-14   0.504E+01 0.000E+00 0.000E+00   -.112E-02 0.160E-12 -.103E-13
 -----------------------------------------------------------------------------------------------
   -.765E-07 0.136E-08 0.193E-08   0.000E+00 -.686E-16 0.000E+00   0.000E+00 0.888E-15 -.555E-16   0.169E-08 0.402E-12 -.129E-14


 POSITION                                       TOTAL-FORCE (eV/Angst)
 -----------------------------------------------------------------------------------
      0.59811     -1.03596      0.98582         0.092718     -0.160593     -0.000000
      0.59811      1.03596      4.92910         0.092718      0.160593      0.000000
      3.25071      0.00000      2.95746        -0.185437      0.000000      0.000000
 -----------------------------------------------------------------------------------
    total drift:                               -0.000000      0.000000      0.000000


--------------------------------------------------------------------------------------------------------



  FREE ENERGIE OF THE ION-ELECTRON SYSTEM (eV)
  ---------------------------------------------------
  free  energy   TOTEN  =        -9.41233597 eV

  energy  without entropy=       -9.41233597  energy(sigma->0) =       -9.41233597



--------------------------------------------------------------------------------------------------------


    POTLOK:  cpu time    0.3500: real time    0.3687


--------------------------------------------------------------------------------------------------------




--------------------------------------------------------------------------------------------------------


    WAVPRE:  cpu time    0.0257: real time    0.0298
    FEWALD:  cpu time    0.0003: real time    0.0003
    GENKIN:  cpu time    0.0229: real time    0.0240
    ORTHCH:  cpu time    0.0935: real time    0.0957
     LOOP+:  cpu time   29.3020: real time   30.8457


--------------------------------------- Iteration      2(   1)  ---------------------------------------


    POTLOK:  cpu time    0.0952: real time    0.0984
    SETDIJ:  cpu time    0.2427: real time    0.2470
     EDDAV:  cpu time    1.5890: real time    1.6174
       DOS:  cpu time    0.0003: real time    0.0003
    CHARGE:  cpu time    0.1297: real time    0.1357
    MIXING:  cpu time    0.0030: real time    0.0031
    --------------------------------------------
      LOOP:  cpu time    2.0599: real time    2.1017

 eigenvalue-minimisations  :   896
 total energy-change (2. order) :-0.1069530E+00  (-0.2473313E+00)
 number of electron      18.0000000 magnetization 
 augmentation part       -3.6644932 magnetization 

  free energy =  -0.951928887105E+01  energy without entropy=  -0.951928887104E+01


--------------------------------------------------------------------------------------------------------




--------------------------------------- Iteration      2(   2)  ---------------------------------------


    POTLOK:  cpu time    0.1014: real time    0.1054
    SETDIJ:  cpu time    0.2510: real time    0.2557
     EDDAV:  cpu time    1.5952: real time    1.6233
       DOS:  cpu time    0.0004: real time    0.0004
    CHARGE:  cpu time    0.1368: real time    0.1415
    MIXING:  cpu time    0.0040: real time    0.0041
    --------------------------------------------
      LOOP:  cpu time    2.0889: real time    2.1303

 eigenvalue-minimisations  :   896
 total energy-change (2. order) : 0.6463875E-01  (-0.9630436E-02)
 number of electron      18.0000000 magnetization 
 augmentation part       -3.6514631 magnetization 

 eigenvalues of (default mixing * dielectric matrix)
  average eigenvalue GAMMA=   0.8549
  0.8549

  free energy =  -0.945465012580E+01  energy without entropy=  -0.945465012580E+01


--------------------------------------------------------------------------------------------------------




--------------------------------------- Iteration      2(   3)  ---------------------------------------


    POTLOK:  cpu time    0.1043: real time    0.1117
    SETDIJ:  cpu time    0.2479: real time    0.2532
     EDDAV:  cpu time    1.8993: real time    1.9836
       DOS:  cpu time    0.0004: real time    0.0004
    CHARGE:  cpu time    0.1661: real time    0.1912
    MIXING:  cpu time    0.0042: real time    0.0045
    --------------------------------------------
      LOOP:  cpu time    2.4222: real time    2.5446

 eigenvalue-minimisations  :  1004
 total energy-change (2. order) : 0.2423574E-01  (-0.2295448E-02)
 number of electron      18.0000000 magnetization 
 augmentation part       -3.6303287 magnetization 

 eigenvalues of (default mixing * dielectric matrix)
  average eigenvalue GAMMA=   1.2635
  0.7575  1.7695

  free energy =  -0.943041438691E+01  energy without entropy=  -0.943041438691E+01


--------------------------------------------------------------------------------------------------------




--------------------------------------- Iteration      2(   4)  ---------------------------------------


    POTLOK:  cpu time    0.1122: real time    0.1318
    SETDIJ:  cpu time    0.2647: real time    0.2860
     EDDAV:  cpu time    1.7396: real time    1.8821
       DOS:  cpu time    0.0004: real time    0.0004
    CHARGE:  cpu time    0.1241: real time    0.1272
    MIXING:  cpu time    0.0039: real time    0.0043
    --------------------------------------------
      LOOP:  cpu time    2.2448: real time    2.4318

 eigenvalue-minimisations  :   902
 total energy-change (2. order) : 0.7849959E-02  (-0.1511415E-02)
 number of electron      18.0000000 magnetization 
 augmentation part       -3.6109748 magnetization 

 eigenvalues of (default mixing * dielectric matrix)
  average eigenvalue GAMMA=   1.6115
  1.1975  1.8184  1.8184

  free energy =  -0.942256442777E+01  energy without entropy=  -0.942256442777E+01


--------------------------------------------------------------------------------------------------------




--------------------------------------- Iteration      2(   5)  ---------------------------------------


    POTLOK:  cpu time    0.1187: real time    0.1298
    SETDIJ:  cpu time    0.2521: real time    0.2584
     EDDAV:  cpu time    2.2882: real time    2.4280
       DOS:  cpu time    0.0003: real time    0.0003
    CHARGE:  cpu time    0.1238: real time    0.1302
    MIXING:  cpu time    0.0031: real time    0.0032
    --------------------------------------------
      LOOP:  cpu time    2.7862: real time    2.9500

 eigenvalue-minimisations  :  1232
 total energy-change (2. order) : 0.1129388E-03  (-0.7124921E-04)
 number of electron      18.0000000 magnetization 
 augmentation part       -3.6077540 magnetization 

 eigenvalues of (default mixing * dielectric matrix)
  average eigenvalue GAMMA=   1.7128
  2.3442  2.3442  0.9486  1.2141

  free energy =  -0.942245148896E+01  energy without entropy=  -0.942245148896E+01


--------------------------------------------------------------------------------------------------------




--------------------------------------- Iteration      2(   6)  ---------------------------------------


    POTLOK:  cpu time    0.1274: real time    0.1949
    SETDIJ:  cpu time    0.3252: real time    0.4270
     EDDAV:  cpu time    2.1759: real time    2.4017
       DOS:  cpu time    0.0004: real time    0.0005
    CHARGE:  cpu time    0.1247: real time    0.1290
    MIXING:  cpu time    0.0030: real time    0.0032
    --------------------------------------------
      LOOP:  cpu time    2.7565: real time    3.1564

 eigenvalue-minimisations  :  1118
 total energy-change (2. order) :-0.1112952E-04  (-0.2444932E-05)
 number of electron      18.0000000 magnetization 
 augmentation part       -3.6073896 magnetization 

 eigenvalues of (default mixing * dielectric matrix)
  average eigenvalue GAMMA=   1.6482
  2.3937  2.1343  1.0276  1.0276  1.6579

  free energy =  -0.942246261848E+01  energy without entropy=  -0.942246261848E+01


--------------------------------------------------------------------------------------------------------




--------------------------------------- Iteration      2(   7)  ---------------------------------------


    POTLOK:  cpu time    0.0980: real time    0.1008
    SETDIJ:  cpu time    0.2635: real time    0.2726
     EDDAV:  cpu time    1.5046: real time    1.5460
       DOS:  cpu time    0.0003: real time    0.0003
    CHARGE:  cpu time    0.1288: real time    0.1339
    MIXING:  cpu time    0.0037: real time    0.0037
    --------------------------------------------
      LOOP:  cpu time    1.9990: real time    2.0574

 eigenvalue-minimisations  :   784
 total energy-change (2. order) :-0.1659595E-05  (-0.7796415E-07)
 number of electron      18.0000000 magnetization 
 augmentation part       -3.6073842 magnetization 

 eigenvalues of (default mixing * dielectric matrix)
  average eigenvalue GAMMA=   1.6613
  0.9219  1.0906  1.0906  2.5355  2.1647  2.1647

  free energy =  -0.942246427807E+01  energy without entropy=  -0.942246427807E+01


--------------------------------------------------------------------------------------------------------




--------------------------------------- Iteration      2(   8)  ---------------------------------------


    POTLOK:  cpu time    0.1086: real time    0.1158
    SETDIJ:  cpu time    0.2683: real time    0.2812
     EDDAV:  cpu time    1.3480: real time    1.4085
       DOS:  cpu time    0.0003: real time    0.0003
    CHARGE:  cpu time    0.1281: real time    0.1318
    MIXING:  cpu time    0.0033: real time    0.0033
    --------------------------------------------
      LOOP:  cpu time    1.8566: real time    1.9409

 eigenvalue-minimisations  :   640
 total energy-change (2. order) :-0.1445290E-05  (-0.3096181E-07)
 number of electron      18.0000000 magnetization 
 augmentation part       -3.6073793 magnetization 

 eigenvalues of (default mixing * dielectric matrix)
  average eigenvalue GAMMA=   1.7173
  2.5781  2.5781  1.8843  1.8843  0.9587  1.0689  1.0689

  free energy =  -0.942246572336E+01  energy without entropy=  -0.942246572336E+01


--------------------------------------------------------------------------------------------------------




--------------------------------------- Iteration      2(   9)  ---------------------------------------


    POTLOK:  cpu time    0.0997: real time    0.1028
    SETDIJ:  cpu time    0.2493: real time    0.2555
     EDDAV:  cpu time    1.0680: real time    1.0853
       DOS:  cpu time    0.0005: real time    0.0007
    --------------------------------------------
      LOOP:  cpu time    1.4174: real time    1.4444

 eigenvalue-minimisations  :   484
 total energy-change (2. order) :-0.2827823E-06  (-0.1050446E-07)
 number of electron      18.0000000 magnetization 
 augmentation part       -3.6073793 magnetization 

  free energy =  -0.942246600615E+01  energy without entropy=  -0.942246600615E+01


--------------------------------------------------------------------------------------------------------




 average (electrostatic) potential at core
  the test charge radii are     1.1897
  (the norm of the test charge is              1.0000)
       1 -89.5324       2 -89.5324       3 -89.5324



 E-fermi :   5.4373     XC(G=0):  -8.8756     alpha+bet :-10.0839


 k-point     1 :       0.0000    0.0000    0.0000
  band No.  band energies     occupation 
      1      -7.8723      2.00000
      2      -4.8219      2.00000
      3      -4.8219      2.00000
      4       2.5271      2.00000
      5       2.7373      2.00000
      6       2.7373      2.00000
      7       3.8156      2.00000
      8       3.8156      2.00000
      9       4.5784      2.00000
     10       6.3248      0.00000
     11       6.3248      0.00000
     12       6.9337      0.00000
     13      10.4403      0.00000
     14      10.4403      0.00000

 k-point     2 :       0.1429    0.0000    0.0000
  band No.  band energies     occupation 
      1      -7.7426      2.00000
      2      -4.8676      2.00000
      3      -4.7930      2.00000
      4       1.6795      2.00000
      5       2.1914      2.00000
      6       2.5194      2.00000
      7       4.1517      2.00000
      8       4.4593      2.00000
[...]
      9       4.2788      2.00000
     10       6.6719      0.00000
     11       7.2554      0.00000
     12       8.7374      0.00000
     13       9.3151      0.00000
     14      11.9024      0.00000

 k-point    14 :      -0.2857    0.0000    0.2000
  band No.  band energies     occupation 
      1      -7.2424      2.00000
      2      -5.4936      2.00000
      3      -4.1833      2.00000
      4       1.3780      2.00000
      5       1.8486      2.00000
      6       2.4687      2.00000
      7       2.8426      2.00000
      8       3.9741      2.00000
      9       4.3619      2.00000
     10       6.7834      0.00000
     11       7.3185      0.00000
     12       8.2437      0.00000
     13       9.9659      0.00000
     14      10.9490      0.00000

 k-point    15 :      -0.1429    0.0000    0.2000
  band No.  band energies     occupation 
      1      -7.5786      2.00000
      2      -5.6574      2.00000
      3      -3.7605      2.00000
      4       1.8027      2.00000
      5       2.4248      2.00000
      6       2.7857      2.00000
      7       3.8841      2.00000
      8       4.1626      2.00000
      9       4.3713      2.00000
     10       6.6230      0.00000
     11       6.7200      0.00000
     12       7.1054      0.00000
     13      10.2039      0.00000
     14      10.8429      0.00000

 k-point    16 :       0.1429    0.1429    0.2000
  band No.  band energies     occupation 
      1      -7.3412      2.00000
      2      -5.5795      2.00000
      3      -3.9783      2.00000
      4       1.2783      2.00000
      5       1.6459      2.00000
      6       2.5761      2.00000
      7       3.5161      2.00000
      8       4.1669      2.00000
      9       5.0501      2.00000
     10       6.3718      0.00000
     11       6.9493      0.00000
     12       7.4222      0.00000
     13       9.7841      0.00000
     14      10.6890      0.00000

 k-point    17 :       0.2857    0.1429    0.2000
  band No.  band energies     occupation 
      1      -6.9451      2.00000
      2      -5.5599      2.00000
      3      -4.2800      2.00000
      4       0.6174      2.00000
      5       1.3197      2.00000
      6       2.1715      2.00000
      7       3.1161      2.00000
      8       4.3408      2.00000
      9       4.7936      2.00000
     10       6.5211      0.00000
     11       7.2316      0.00000
     12       7.7631      0.00000
     13       9.4868      0.00000
     14      11.2109      0.00000

 k-point    18 :       0.4286    0.1429    0.2000
  band No.  band energies     occupation 
      1      -6.7097      2.00000
      2      -5.5338      2.00000
      3      -4.5395      2.00000
      4       0.7028      2.00000
      5       1.0712      2.00000
      6       2.1295      2.00000
      7       2.9833      2.00000
      8       3.4791      2.00000
      9       4.8590      2.00000
     10       6.4903      0.00000
     11       7.7540      0.00000
     12       8.3464      0.00000
     13       9.5270      0.00000
     14      12.0732      0.00000

 k-point    19 :      -0.4286    0.1429    0.2000
  band No.  band energies     occupation 
      1      -6.9614      2.00000
      2      -5.4535      2.00000
      3      -4.4269      2.00000
      4       0.9589      2.00000
      5       1.4047      2.00000
      6       2.3320      2.00000
      7       2.6810      2.00000
      8       3.5881      2.00000
      9       5.0150      2.00000
     10       6.4260      0.00000
     11       7.5222      0.00000
     12       8.5772      0.00000
     13       9.8348      0.00000
     14      10.8471      0.00000

 k-point    20 :       0.2857    0.2857    0.2000
  band No.  band energies     occupation 
      1      -6.6608      2.00000
      2      -5.4759      2.00000
      3      -4.6413      2.00000
      4       0.6828      2.00000
      5       1.1754      2.00000
      6       1.9102      2.00000
      7       2.7266      2.00000
      8       3.7737      2.00000
      9       4.3691      2.00000
     10       7.3034      0.00000
     11       7.7388      0.00000
     12       8.3737      0.00000
     13      10.3988      0.00000
     14      10.8342      0.00000

 k-point    21 :       0.0000    0.0000    0.4000
  band No.  band energies     occupation 
      1      -7.2888      2.00000
      2      -6.6165      2.00000
      3      -2.8617      2.00000
      4       1.8381      2.00000
      5       2.8311      2.00000
      6       3.0212      2.00000
      7       4.2358      2.00000
      8       4.3655      2.00000
      9       4.6259      2.00000
     10       5.9900      0.00000
     11       6.0706      0.00000
     12       6.1545      0.00000
     13       9.7487      0.00000
     14      10.8023      0.00000

 k-point    22 :       0.1429    0.0000    0.4000
  band No.  band energies     occupation 
      1      -7.1704      2.00000
      2      -6.5258      2.00000
      3      -3.0956      2.00000
      4       1.6570      2.00000
      5       2.3462      2.00000
      6       2.8217      2.00000
      7       3.9402      2.00000
      8       4.2242      2.00000
      9       4.4104      2.00000
     10       6.2393      0.00000
     11       6.4048      0.00000
     12       7.1399      0.00000
     13       9.7981      0.00000
     14      10.6947      0.00000

 k-point    23 :       0.2857    0.0000    0.4000
  band No.  band energies     occupation 
      1      -6.8484      2.00000
      2      -6.3089      2.00000
      3      -3.6525      2.00000
      4       0.8354      2.00000
      5       1.7700      2.00000
      6       2.4412      2.00000
      7       3.7047      2.00000
      8       3.8985      2.00000
      9       4.8679      2.00000
     10       6.6017      0.00000
     11       7.1457      0.00000
     12       7.2758      0.00000
     13       9.6424      0.00000
     14      11.4573      0.00000

 k-point    24 :       0.4286    0.0000    0.4000
  band No.  band energies     occupation 
      1      -6.5289      2.00000
      2      -6.0517      2.00000
      3      -4.2373      2.00000
      4       0.1857      2.00000
      5       1.6763      2.00000
      6       2.1849      2.00000
      7       3.3851      2.00000
      8       3.6774      2.00000
      9       5.3041      2.00000
     10       6.3921      0.00000
     11       7.1980      0.00000
     12       7.8393      0.00000
     13       9.8335      0.00000
     14      11.3091      0.00000

 k-point    25 :      -0.4286    0.0000    0.4000
  band No.  band energies     occupation 
      1      -6.5794      2.00000
      2      -5.9516      2.00000
      3      -4.3308      2.00000
      4       0.3527      2.00000
      5       1.8241      2.00000
      6       2.1421      2.00000
      7       3.3035      2.00000
      8       3.6104      2.00000
      9       4.4062      2.00000
     10       7.1745      0.00000
     11       7.5195      0.00000
     12       7.9561      0.00000
     13      10.1317      0.00000
     14      10.9435      0.00000

 k-point    26 :      -0.2857    0.0000    0.4000
  band No.  band energies     occupation 
      1      -6.8860      2.00000
      2      -6.2382      2.00000
      3      -3.7505      2.00000
      4       1.1704      2.00000
      5       2.1637      2.00000
      6       2.3635      2.00000
      7       3.4177      2.00000
      8       3.4671      2.00000
      9       4.0247      2.00000
     10       7.0705      0.00000
     11       7.5696      0.00000
     12       8.0412      0.00000
     13      10.4004      0.00000
     14      10.9266      0.00000

 k-point    27 :      -0.1429    0.0000    0.4000
  band No.  band energies     occupation 
      1      -7.1755      2.00000
      2      -6.5161      2.00000
      3      -3.1173      2.00000
      4       1.7330      2.00000
      5       2.6252      2.00000
      6       2.8885      2.00000
      7       3.6088      2.00000
      8       3.8672      2.00000
      9       4.2476      2.00000
     10       6.5239      0.00000
     11       6.8125      0.00000
     12       7.0278      0.00000
     13      10.0991      0.00000
     14      10.6583      0.00000

 k-point    28 :       0.1429    0.1429    0.4000
  band No.  band energies     occupation 
      1      -6.9600      2.00000
      2      -6.3495      2.00000
      3      -3.5211      2.00000
      4       1.3235      2.00000
      5       1.9023      2.00000
      6       2.4165      2.00000
      7       3.2858      2.00000
      8       4.2055      2.00000
      9       4.6233      2.00000
     10       6.2986      0.00000
     11       7.3402      0.00000
     12       7.6840      0.00000
     13      10.0644      0.00000
     14      10.8623      0.00000

 k-point    29 :       0.2857    0.1429    0.4000
  band No.  band energies     occupation 
      1      -6.6098      2.00000
      2      -6.1239      2.00000
      3      -4.0695      2.00000
      4       0.5082      2.00000
      5       1.3990      2.00000
      6       1.9042      2.00000
      7       3.3105      2.00000
      8       4.6977      2.00000
      9       5.2505      2.00000
     10       6.2243      0.00000
     11       6.8491      0.00000
     12       7.9224      0.00000
     13       9.9586      0.00000
     14      11.6905      0.00000

 k-point    30 :       0.4286    0.1429    0.4000
  band No.  band energies     occupation 
      1      -6.4430      2.00000
      2      -5.9358      2.00000
      3      -4.4208      2.00000
      4       0.2649      2.00000
      5       1.1922      2.00000
      6       1.7038      2.00000
      7       3.5556      2.00000
      8       4.5021      2.00000
      9       4.9923      2.00000
     10       6.6246      0.00000
     11       7.0645      0.00000
     12       7.8228      0.00000
     13      10.1418      0.00000
     14      11.3804      0.00000

 k-point    31 :      -0.4286    0.1429    0.4000
  band No.  band energies     occupation 
      1      -6.6452      2.00000
      2      -6.0574      2.00000
      3      -4.1367      2.00000
      4       0.7591      2.00000
      5       1.3270      2.00000
      6       1.8517      2.00000
      7       3.5776      2.00000
      8       4.2383      2.00000
      9       4.5103      2.00000
     10       6.8454      0.00000
     11       7.4037      0.00000
     12       7.9148      0.00000
     13      10.4275      0.00000
     14      11.0557      0.00000

 k-point    32 :       0.2857    0.2857    0.4000
  band No.  band energies     occupation 
      1      -6.3770      2.00000
      2      -5.9388      2.00000
      3      -4.4431      2.00000
      4       0.5276      2.00000
      5       0.7843      2.00000
      6       1.1656      2.00000
      7       4.0018      2.00000
      8       4.9660      2.00000
      9       5.3815      2.00000
     10       6.1777      0.00000
     11       6.9647      0.00000
     12       7.5270      0.00000
     13      10.8557      0.00000
     14      11.4926      0.00000


--------------------------------------------------------------------------------------------------------


 soft charge-density along one line, spin component           1
         0         1         2         3         4         5         6         7         8         9
 total charge-density along one line

 pseudopotential strength for first ion, spin component:           1
 51.796  56.355   0.046  -0.000  -0.026   0.066  -0.000  -0.038
 56.355  61.319   0.050  -0.000  -0.029   0.072  -0.000  -0.042
  0.046   0.050  12.758  -0.007  -0.009  18.390  -0.010  -0.014
 -0.000  -0.000  -0.007  12.763  -0.012  -0.010  18.398  -0.017
 -0.026  -0.029  -0.009  -0.012  12.747  -0.014  -0.017  18.375
  0.066   0.072  18.390  -0.010  -0.014  26.518  -0.014  -0.020
 -0.000  -0.000  -0.010  18.398  -0.017  -0.014  26.529  -0.024
 -0.038  -0.042  -0.014  -0.017  18.375  -0.020  -0.024  26.496
 -0.014  -0.015  -0.005   0.001   0.008  -0.007   0.001   0.012
 -0.010  -0.011   0.001   0.007   0.001   0.002   0.010   0.001
  0.009   0.010  -0.006   0.000   0.003  -0.008   0.000   0.005
 -0.017  -0.019   0.001  -0.004  -0.001   0.001  -0.006  -0.002
 -0.008  -0.009  -0.008  -0.001  -0.005  -0.012  -0.002  -0.007
 total augmentation occupancy for first ion, spin component:           1
 12.909  -9.371  -1.892  -0.000   1.092   0.481   0.000  -0.278   0.103   0.082  -0.092   0.142   0.059
 -9.371   8.052   1.603   0.000  -0.926  -0.422  -0.000   0.244  -0.092  -0.074   0.083  -0.129  -0.053
 -1.892   1.603   2.669  -0.112  -0.105  -0.651   0.098   0.109  -0.027  -0.045   0.013  -0.029  -0.047
 -0.000   0.000  -0.112   2.840  -0.194   0.098  -0.773   0.170  -0.024   0.106  -0.000  -0.061   0.042
  1.092  -0.926  -0.105  -0.194   2.548   0.109   0.170  -0.525   0.047  -0.024  -0.008   0.045  -0.028
  0.481  -0.422  -0.651   0.098   0.109   0.227  -0.037  -0.036   0.007   0.015  -0.003   0.007   0.012
  0.000  -0.000   0.098  -0.773   0.170  -0.037   0.277  -0.063   0.009  -0.032   0.000   0.018  -0.016
 -0.278   0.244   0.109   0.170  -0.525  -0.036  -0.063   0.186  -0.012   0.010   0.002  -0.015   0.007
  0.103  -0.092  -0.027  -0.024   0.047   0.007   0.009  -0.012   0.009  -0.003   0.001   0.005   0.000
  0.082  -0.074  -0.045   0.106  -0.024   0.015  -0.032   0.010  -0.003   0.022  -0.002  -0.005   0.008
 -0.092   0.083   0.013  -0.000  -0.008  -0.003   0.000   0.002   0.001  -0.002   0.007  -0.003   0.000
  0.142  -0.129  -0.029  -0.061   0.045   0.007   0.018  -0.015   0.005  -0.005  -0.003   0.016  -0.003
  0.059  -0.053  -0.047   0.042  -0.028   0.012  -0.016   0.007   0.000   0.008   0.000  -0.003   0.009


------------------------ aborting loop because EDIFF is reached ----------------------------------------


    CHARGE:  cpu time    0.1395: real time    0.1580
    FORLOC:  cpu time    0.0044: real time    0.0044
    FORNL :  cpu time    0.3095: real time    0.3201
    STRESS:  cpu time    1.0963: real time    1.1795
    FORCOR:  cpu time    0.0998: real time    0.1045
    FORHAR:  cpu time    0.0273: real time    0.0352
    MIXING:  cpu time    0.0046: real time    0.0048
    OFIELD:  cpu time    0.0000: real time    0.0000

  FORCE on cell =-STRESS in cart. coord.  units (eV):
  Direction    XX          YY          ZZ          XY          YZ          ZX
  --------------------------------------------------------------------------------------
  Alpha Z     2.22055     2.22055     2.22055
  Ewald    -234.97646  -234.97646  -197.21971     0.00000     0.00000    -0.00000
  Hartree    11.88310    11.88310    21.85761    -0.00000    -0.00000    -0.00000
  E(xc)     -70.22059   -70.22059   -69.75978    -0.00000    -0.00000     0.00000
  Local    -114.78909  -114.78904  -153.64282    -0.00000    -0.00000     0.00000
  n-local   330.79448   333.08358   327.77946     0.77676    -1.16608     0.35136
  augment   -81.04637   -81.04643   -78.87730     0.00000    -0.00000     0.00000
  Kinetic   149.81580   160.16209   147.64328     5.47197     0.72702    -1.37988
  Fock        0.00000     0.00000     0.00000     0.00000     0.00000     0.00000
  -------------------------------------------------------------------------------------
  Total      -0.00088    -0.00088     0.00128     0.00000    -0.00000    -0.00000
  in kB      -0.01346    -0.01346     0.01951     0.00000    -0.00000    -0.00000
  external pressure =       -0.00 kB  Pullay stress =        0.00 kB


 VOLUME and BASIS-vectors are now :
 -----------------------------------------------------------------------------
  energy-cutoff  :      500.00
  volume of cell :      105.27
      direct lattice vectors                 reciprocal lattice vectors
     2.259320305 -3.913257559 -0.000000000     0.221305496 -0.127770788  0.000000000
     2.259320305  3.913257559  0.000000000     0.221305496  0.127770788 -0.000000000
    -0.000000000  0.000000000  5.953196681    -0.000000000 -0.000000000  0.167976980

  length of vectors
     4.518640610  4.518640610  5.953196681     0.255541575  0.255541575  0.167976980


 FORCES acting on ions
    electron-ion (+dipol)            ewald-force                    non-local-force                 convergence-correction
 -----------------------------------------------------------------------------------------------
   -.604E+01 0.105E+02 0.155E-06   0.863E+01 -.149E+02 -.213E-09   -.258E+01 0.447E+01 0.000E+00   -.311E-04 0.539E-04 -.139E-10
   -.604E+01 -.105E+02 -.115E-06   0.863E+01 0.149E+02 0.213E-09   -.258E+01 -.447E+01 0.000E+00   -.311E-04 -.539E-04 0.137E-10
   0.121E+02 0.140E-07 -.400E-07   -.173E+02 0.837E-15 0.711E-14   0.517E+01 -.112E-15 0.555E-16   0.623E-04 0.633E-14 0.224E-12
 -----------------------------------------------------------------------------------------------
   0.485E-08 0.182E-09 0.916E-09   -.355E-14 -.939E-15 0.695E-17   -.178E-14 -.112E-15 0.555E-16   -.265E-09 -.871E-16 0.842E-15


 POSITION                                       TOTAL-FORCE (eV/Angst)
 -----------------------------------------------------------------------------------
      0.60691     -1.05119      0.99220        -0.000045      0.000078      0.000000
      0.60691      1.05119      4.96100        -0.000045     -0.000078     -0.000000
      3.30483      0.00000      2.97660         0.000090     -0.000000      0.000000
 -----------------------------------------------------------------------------------
    total drift:                                0.000000      0.000000      0.000000


--------------------------------------------------------------------------------------------------------



  FREE ENERGIE OF THE ION-ELECTRON SYSTEM (eV)
  ---------------------------------------------------
  free  energy   TOTEN  =        -9.43109357 eV

  energy  without entropy=       -9.43109357  energy(sigma->0) =       -9.43109357

 d Force = 0.3855493E-06[-0.644E-07, 0.835E-06]  d Energy = 0.1577224E-06 0.228E-06
 d Force = 0.1235169E-01[ 0.123E-01, 0.124E-01]  d Ewald  = 0.1819286E-01-0.584E-02


--------------------------------------------------------------------------------------------------------


    POTLOK:  cpu time    0.3848: real time    0.4087


--------------------------------------------------------------------------------------------------------


 Conjugate gradient step on ions:
 trial-energy change:   -0.000000  1 .order   -0.000000   -0.000001   -0.000000
  (g-gl).g = 0.228E-05      g.g   = 0.897E-06  gl.gl    = 0.402E-05
 g(Force)  = 0.197E-06   g(Stress)= 0.700E-06 ortho     =-0.530E-07
 gamma     =   0.56710
 trial     =   1.02366
 opt step  =   1.04047  (harmonic =   1.04047) maximal distance =0.00020998
 next E    =    -9.431094   (d E  =  -0.00000)


--------------------------------------------------------------------------------------------------------


  
 reached required accuracy - stopping structural energy minimisation
     LOOP+:  cpu time   11.8130: real time   12.6070
    4ORBIT:  cpu time    0.0001: real time    0.0040

 total amount of memory used by VASP MPI-rank0    66668. kBytes
=======================================================================

   base      :      30000. kBytes
   nonl-proj :       8743. kBytes
   fftplans  :       6926. kBytes
   grid      :      11550. kBytes
   one-center:         24. kBytes
   wavefun   :       9425. kBytes

  
  
 General timing and accounting informations for this job:
 ========================================================
  
                  Total CPU time used (sec):      215.648
                            User time (sec):      210.876
                          System time (sec):        4.772
                         Elapsed time (sec):      226.498
  
                   Maximum memory used (kb):    78856192.
                   Average memory used (kb):           0.
  
                          Minor page faults:       281380
                          Major page faults:          953
                 Voluntary context switches:          226
