<?xml version="1.0" encoding="ISO-8859-1"?>
<modeling>
 <generator>
  <i name="program" type="string">vasp </i>
  <i name="version" type="string">5.4.4.18Apr17-6-g9f103f2a35  </i>
  <i name="subversion" type="string">(build May 21 2018 15:16:00) complex            parallel </i>
  <i name="platform" type="string">GUN_wannier90_optcell </i>
  <i name="date" type="string">2019 03 24 </i>
  <i name="time" type="string">21:25:43 </i>
 </generator>
 <incar>
  <i type="string" name="SYSTEM"> Te-a</i>
  <i type="int" name="ISTART">     0</i>
  <i type="string" name="PREC">a</i>
  <i type="string" name="ALGO">     N ! Normal     algorithm</i>
  <i type="logical" name="LDIAG"> T  </i>
  <i type="int" name="NELM">  2000</i>
  <i type="int" name="NELMIN">     5</i>
  <i type="int" name="IBRION">     2</i>
  <i name="EDIFF">      0.00000100</i>
  <i name="EDIFFG">     -0.00100000</i>
  <i type="int" name="NSW">   500</i>
  <i type="int" name="ISIF">     3</i>
  <i type="int" name="NBLOCK">     1</i>
  <i type="int" name="KBLOCK">     5</i>
  <i name="ENCUT">    500.00000000</i>
  <i name="POTIM">      0.50000000</i>
  <i type="logical" name="LREAL"> F  </i>
  <i type="int" name="ISMEAR">     0</i>
  <i name="SIGMA">      0.05000000</i>
  <i type="int" name="NWRITE">     1</i>
  <i type="logical" name="LCORR"> T  </i>
  <i type="logical" name="LWAVE"> F  </i>
  <i type="logical" name="LCHARG"> F  </i>
  <i type="logical" name="LASPH"> T  </i>
  <i type="logical" name="GGA_COMPAT"> F  </i>
  <v type="int" name="KPOINT_BSE">    -1     0     0     0</v>
  <i type="int" name="NELM">  2000</i>
  <i type="logical" name="LASPH"> T  </i>
 </incar>
 <structure name="primitive_cell" >
  <crystal>
   <varray name="basis" >
    <v>       2.22346500      -3.85115435       0.00000000 </v>
    <v>       2.22346500       3.85115435       0.00000000 </v>
    <v>       0.00000000       0.00000000       5.91492000 </v>
   </varray>
   <i name="volume">    101.29781861 </i>
   <varray name="rec_basis" >
    <v>       0.22487424      -0.12983120       0.00000000 </v>
    <v>       0.22487424       0.12983120      -0.00000000 </v>
    <v>      -0.00000000       0.00000000       0.16906399 </v>
   </varray>
  </crystal>
  <varray name="positions" >
   <v>       0.26900000       0.00000000       0.16666667 </v>
   <v>      -0.26900000      -0.26900000      -0.50000000 </v>
   <v>       0.00000000       0.26900000      -0.16666667 </v>
  </varray>
 </structure>
 <varray name="primitive_index" >
  <v type="int" >        1 </v>
  <v type="int" >        3 </v>
  <v type="int" >        2 </v>
 </varray>
 <kpoints>
  <generation param="Gamma">
   <v type="int" name="divisions">       7        7        5 </v>
   <v name="usershift">      0.00000000       0.00000000       0.00000000 </v>
   <v name="genvec1">      0.14285714       0.00000000       0.00000000 </v>
   <v name="genvec2">      0.00000000       0.14285714       0.00000000 </v>
   <v name="genvec3">      0.00000000       0.00000000       0.20000000 </v>
   <v name="shift">      0.00000000       0.00000000       0.00000000 </v>
  </generation>
  <varray name="kpointlist" >
   <v>       0.00000000       0.00000000       0.00000000 </v>
   <v>       0.14285714       0.00000000       0.00000000 </v>
   <v>       0.28571429       0.00000000       0.00000000 </v>
   <v>       0.42857143       0.00000000       0.00000000 </v>
   <v>       0.14285714       0.14285714       0.00000000 </v>
   <v>       0.28571429       0.14285714       0.00000000 </v>
   <v>       0.42857143       0.14285714       0.00000000 </v>
   <v>       0.28571429       0.28571429       0.00000000 </v>
   <v>       0.00000000       0.00000000       0.20000000 </v>
   <v>       0.14285714       0.00000000       0.20000000 </v>
   <v>       0.28571429       0.00000000       0.20000000 </v>
   <v>       0.42857143       0.00000000       0.20000000 </v>
   <v>      -0.42857143       0.00000000       0.20000000 </v>
   <v>      -0.28571429       0.00000000       0.20000000 </v>
   <v>      -0.14285714       0.00000000       0.20000000 </v>
   <v>       0.14285714       0.14285714       0.20000000 </v>
   <v>       0.28571429       0.14285714       0.20000000 </v>
   <v>       0.42857143       0.14285714       0.20000000 </v>
   <v>      -0.42857143       0.14285714       0.20000000 </v>
   <v>       0.28571429       0.28571429       0.20000000 </v>
   <v>       0.00000000       0.00000000       0.40000000 </v>
   <v>       0.14285714       0.00000000       0.40000000 </v>
   <v>       0.28571429       0.00000000       0.40000000 </v>
   <v>       0.42857143       0.00000000       0.40000000 </v>
   <v>      -0.42857143       0.00000000       0.40000000 </v>
   <v>      -0.28571429       0.00000000       0.40000000 </v>
   <v>      -0.14285714       0.00000000       0.40000000 </v>
   <v>       0.14285714       0.14285714       0.40000000 </v>
   <v>       0.28571429       0.14285714       0.40000000 </v>
   <v>       0.42857143       0.14285714       0.40000000 </v>
   <v>      -0.42857143       0.14285714       0.40000000 </v>
   <v>       0.28571429       0.28571429       0.40000000 </v>
  </varray>
  <varray name="weights" >
   <v>       0.00408163 </v>
   <v>       0.02448980 </v>
   <v>       0.02448980 </v>
   <v>       0.02448980 </v>
   <v>       0.02448980 </v>
   <v>       0.04897959 </v>
   <v>       0.02448980 </v>
   <v>       0.02448980 </v>
   <v>       0.00816327 </v>
   <v>       0.02448980 </v>
   <v>       0.02448980 </v>
   <v>       0.02448980 </v>
   <v>       0.02448980 </v>
   <v>       0.02448980 </v>
   <v>       0.02448980 </v>
   <v>       0.04897959 </v>
   <v>       0.04897959 </v>
   <v>       0.04897959 </v>
   <v>       0.04897959 </v>
   <v>       0.04897959 </v>
   <v>       0.00816327 </v>
   <v>       0.02448980 </v>
   <v>       0.02448980 </v>
   <v>       0.02448980 </v>
   <v>       0.02448980 </v>
   <v>       0.02448980 </v>
   <v>       0.02448980 </v>
   <v>       0.04897959 </v>
   <v>       0.04897959 </v>
   <v>       0.04897959 </v>
   <v>       0.04897959 </v>
   <v>       0.04897959 </v>
  </varray>
 </kpoints>
 <parameters>
  <separator name="general" >
   <i type="string" name="SYSTEM">Te-a</i>
   <i type="logical" name="LCOMPAT"> F  </i>
  </separator>
  <separator name="electronic" >
   <i type="string" name="PREC">a</i>
   <i name="ENMAX">    500.00000000</i>
   <i name="ENAUG">    368.79200000</i>
   <i name="EDIFF">      0.00000100</i>
   <i type="int" name="IALGO">    38</i>
   <i type="int" name="IWAVPR">    11</i>
   <i type="int" name="NBANDS">    14</i>
   <i name="NELECT">     18.00000000</i>
   <i type="int" name="TURBO">     0</i>
   <i type="int" name="IRESTART">     0</i>
   <i type="int" name="NREBOOT">     0</i>
   <i type="int" name="NMIN">     0</i>
   <i name="EREF">      0.00000000</i>
   <separator name="electronic smearing" >
    <i type="int" name="ISMEAR">     0</i>
    <i name="SIGMA">      0.05000000</i>
    <i name="KSPACING">      0.50000000</i>
    <i type="logical" name="KGAMMA"> T  </i>
   </separator>
   <separator name="electronic projectors" >
    <i type="logical" name="LREAL"> F  </i>
    <v name="ROPT">      0.00000000</v>
    <i type="int" name="LMAXPAW">  -100</i>
    <i type="int" name="LMAXMIX">     2</i>
    <i type="logical" name="NLSPLINE"> F  </i>
   </separator>
   <separator name="electronic startup" >
    <i type="int" name="ISTART">     0</i>
    <i type="int" name="ICHARG">     2</i>
    <i type="int" name="INIWAV">     1</i>
   </separator>
   <separator name="electronic spin" >
    <i type="int" name="ISPIN">     1</i>
    <i type="logical" name="LNONCOLLINEAR"> F  </i>
    <v name="MAGMOM">      1.00000000      1.00000000      1.00000000</v>
    <i name="NUPDOWN">     -1.00000000</i>
    <i type="logical" name="LSORBIT"> F  </i>
    <v name="SAXIS">      0.00000000      0.00000000      1.00000000</v>
    <i type="logical" name="LSPIRAL"> F  </i>
    <v name="QSPIRAL">      0.00000000      0.00000000      0.00000000</v>
    <i type="logical" name="LZEROZ"> F  </i>
   </separator>
   <separator name="electronic exchange-correlation" >
    <i type="logical" name="LASPH"> T  </i>
    <i type="logical" name="LMETAGGA"> F  </i>
   </separator>
   <separator name="electronic convergence" >
    <i type="int" name="NELM">  2000</i>
    <i type="int" name="NELMDL">    -5</i>
    <i type="int" name="NELMIN">     5</i>
    <i name="ENINI">    500.00000000</i>
    <separator name="electronic convergence detail" >
     <i type="logical" name="LDIAG"> T  </i>
     <i type="logical" name="LSUBROT"> F  </i>
     <i name="WEIMIN">      0.00100000</i>
     <i name="EBREAK">      0.00000002</i>
     <i name="DEPER">      0.30000000</i>
     <i type="int" name="NRMM">     4</i>
     <i name="TIME">      0.40000000</i>
    </separator>
   </separator>
   <separator name="electronic mixer" >
    <i name="AMIX">      0.40000000</i>
    <i name="BMIX">      1.00000000</i>
    <i name="AMIN">      0.10000000</i>
    <i name="AMIX_MAG">      1.60000000</i>
    <i name="BMIX_MAG">      1.00000000</i>
    <separator name="electronic mixer details" >
     <i type="int" name="IMIX">     4</i>
     <i type="logical" name="MIXFIRST"> F  </i>
     <i type="int" name="MAXMIX">   -45</i>
     <i name="WC">    100.00000000</i>
     <i type="int" name="INIMIX">     1</i>
     <i type="int" name="MIXPRE">     1</i>
     <i type="int" name="MREMOVE">     5</i>
    </separator>
   </separator>
   <separator name="electronic dipolcorrection" >
    <i type="logical" name="LDIPOL"> F  </i>
    <i type="logical" name="LMONO"> F  </i>
    <i type="int" name="IDIPOL">     0</i>
    <i name="EPSILON">      1.00000000</i>
    <v name="DIPOL">   -100.00000000   -100.00000000   -100.00000000</v>
    <i name="EFIELD">      0.00000000</i>
   </separator>
  </separator>
  <separator name="grids" >
   <i type="int" name="NGX">    32</i>
   <i type="int" name="NGY">    32</i>
   <i type="int" name="NGZ">    48</i>
   <i type="int" name="NGXF">    64</i>
   <i type="int" name="NGYF">    64</i>
   <i type="int" name="NGZF">    96</i>
   <i type="logical" name="ADDGRID"> F  </i>
  </separator>
  <separator name="ionic" >
   <i type="int" name="NSW">   500</i>
   <i type="int" name="IBRION">     2</i>
   <i type="int" name="MDALGO">     0</i>
   <i type="int" name="ISIF">     3</i>
   <i name="PSTRESS">      0.00000000</i>
   <i name="EDIFFG">     -0.00100000</i>
   <i type="int" name="NFREE">     1</i>
   <i name="POTIM">      0.50000000</i>
   <i name="SMASS">     -3.00000000</i>
   <i name="SCALEE">      1.00000000</i>
  </separator>
  <separator name="ionic md" >
   <i name="TEBEG">      0.00010000</i>
   <i name="TEEND">      0.00010000</i>
   <i type="int" name="NBLOCK">     1</i>
   <i type="int" name="KBLOCK">     5</i>
   <i type="int" name="NPACO">   256</i>
   <i name="APACO">     16.00000000</i>
  </separator>
  <separator name="symmetry" >
   <i type="int" name="ISYM">     2</i>
   <i name="SYMPREC">      0.00001000</i>
  </separator>
  <separator name="dos" >
   <i type="int" name="LORBIT">     0</i>
   <v name="RWIGS">     -1.00000000</v>
   <i type="int" name="NEDOS">   301</i>
   <i name="EMIN">     10.00000000</i>
   <i name="EMAX">    -10.00000000</i>
   <i name="EFERMI">      0.00000000</i>
  </separator>
  <separator name="writing" >
   <i type="int" name="NWRITE">     1</i>
   <i type="logical" name="LWAVE"> F  </i>
   <i type="logical" name="LDOWNSAMPLE"> F  </i>
   <i type="logical" name="LCHARG"> F  </i>
   <i type="logical" name="LPARD"> F  </i>
   <i type="logical" name="LVTOT"> F  </i>
   <i type="logical" name="LVHAR"> F  </i>
   <i type="logical" name="LELF"> F  </i>
   <i type="logical" name="LOPTICS"> F  </i>
   <v name="STM">      0.00000000      0.00000000      0.00000000      0.00000000      0.00000000      0.00000000      0.00000000</v>
  </separator>
  <separator name="performance" >
   <i type="int" name="NPAR">     2</i>
   <i type="int" name="NSIM">     4</i>
   <i type="int" name="NBLK">    -1</i>
   <i type="logical" name="LPLANE"> T  </i>
   <i type="logical" name="LSCALAPACK"> T  </i>
   <i type="logical" name="LSCAAWARE"> F  </i>
   <i type="logical" name="LSCALU"> F  </i>
   <i type="logical" name="LASYNC"> F  </i>
   <i type="logical" name="LORBITALREAL"> F  </i>
  </separator>
  <separator name="miscellaneous" >
   <i type="int" name="IDIOT">     3</i>
   <i type="int" name="ISPECIAL">     0</i>
   <i type="logical" name="LMUSIC"> F  </i>
   <v name="POMASS">    127.60000000</v>
   <v name="DARWINR">      0.00000000</v>
   <v name="DARWINV">      1.00000000</v>
   <i type="logical" name="LCORR"> T  </i>
  </separator>
  <i type="logical" name="GGA_COMPAT"> F  </i>
  <i type="logical" name="LBERRY"> F  </i>
  <i type="int" name="ICORELEVEL">     0</i>
  <i type="logical" name="LDAU"> F  </i>
  <i type="int" name="I_CONSTRAINED_M">     0</i>
  <separator name="electronic exchange-correlation" >
   <i type="string" name="GGA">--</i>
   <i type="int" name="VOSKOWN">     0</i>
   <i type="logical" name="LHFCALC"> F  </i>
   <i type="string" name="PRECFOCK"></i>
   <i type="logical" name="LSYMGRAD"> F  </i>
   <i type="logical" name="LHFONE"> F  </i>
   <i type="logical" name="LRHFCALC"> F  </i>
   <i type="logical" name="LTHOMAS"> F  </i>
   <i type="logical" name="LMODELHF"> F  </i>
   <i name="ENCUT4O">     -1.00000000</i>
   <i type="int" name="EXXOEP">     0</i>
   <i type="int" name="FOURORBIT">     0</i>
   <i name="AEXX">      0.00000000</i>
   <i name="HFALPHA">      0.00000000</i>
   <i name="MCALPHA">      0.00000000</i>
   <i name="ALDAX">      1.00000000</i>
   <i name="AGGAX">      1.00000000</i>
   <i name="ALDAC">      1.00000000</i>
   <i name="AGGAC">      1.00000000</i>
   <i type="int" name="NKREDX">     1</i>
   <i type="int" name="NKREDY">     1</i>
   <i type="int" name="NKREDZ">     1</i>
   <i type="logical" name="SHIFTRED"> F  </i>
   <i type="logical" name="ODDONLY"> F  </i>
   <i type="logical" name="EVENONLY"> F  </i>
   <i type="int" name="LMAXFOCK">     0</i>
   <i type="int" name="NMAXFOCKAE">     0</i>
   <i type="logical" name="LFOCKAEDFT"> F  </i>
   <i name="HFSCREEN">      0.00000000</i>
   <i name="HFSCREENC">      0.00000000</i>
   <i type="int" name="NBANDSGWLOW">     0</i>
  </separator>
  <separator name="vdW DFT" >
   <i type="logical" name="LUSE_VDW"> F  </i>
   <i name="Zab_VDW">     -0.84910000</i>
   <i name="PARAM1">      0.12340000</i>
   <i name="PARAM2">      1.00000000</i>
   <i name="PARAM3">      0.00000000</i>
  </separator>
  <separator name="model GW" >
   <i type="int" name="MODEL_GW">     0</i>
   <i name="MODEL_EPS0">     20.25956372</i>
   <i name="MODEL_ALPHA">      1.00000000</i>
  </separator>
  <separator name="linear response parameters" >
   <i type="logical" name="LEPSILON"> F  </i>
   <i type="logical" name="LRPA"> F  </i>
   <i type="logical" name="LNABLA"> F  </i>
   <i type="logical" name="LVEL"> F  </i>
   <i type="int" name="KINTER">     0</i>
   <i name="CSHIFT">      0.10000000</i>
   <i name="OMEGAMAX">     -1.00000000</i>
   <i name="DEG_THRESHOLD">      0.00200000</i>
   <i name="RTIME">     -0.10000000</i>
   <i name="WPLASMAI">      0.00000000</i>
   <v name="DFIELD">      0.00000000      0.00000000      0.00000000</v>
   <v name="WPLASMA">      0.00000000      0.00000000      0.00000000      0.00000000      0.00000000      0.00000000      0.00000000      0.00000000      0.00000000</v>
  </separator>
  <separator name="orbital magnetization" >
   <i type="logical" name="NUCIND"> F  </i>
   <v name="MAGPOS">      0.00000000      0.00000000      0.00000000</v>
   <i type="logical" name="LNICSALL"> T  </i>
   <i type="logical" name="ORBITALMAG"> F  </i>
   <i type="logical" name="LMAGBLOCH"> F  </i>
   <i type="logical" name="LCHIMAG"> F  </i>
   <i type="logical" name="LGAUGE"> T  </i>
   <i type="int" name="MAGATOM">     0</i>
   <v name="MAGDIPOL">      0.00000000      0.00000000      0.00000000</v>
   <v name="AVECCONST">      0.00000000      0.00000000      0.00000000</v>
  </separator>
  <separator name="response functions" >
   <i type="logical" name="LADDER"> F  </i>
   <i type="logical" name="LRPAFORCE"> F  </i>
   <i type="logical" name="LFXC"> F  </i>
   <i type="logical" name="LHARTREE"> T  </i>
   <i type="int" name="IBSE">     0</i>
   <v type="int" name="KPOINT">    -1     0     0     0</v>
   <i type="logical" name="LTCTE"> F  </i>
   <i type="logical" name="LTETE"> F  </i>
   <i type="logical" name="LTRIPLET"> F  </i>
   <i type="logical" name="LFXCEPS"> F  </i>
   <i type="logical" name="LFXHEG"> F  </i>
   <i type="int" name="NATURALO">     2</i>
   <i type="logical" name="L2ORDER"> F  </i>
   <i type="logical" name="LMP2LT"> F  </i>
   <i type="logical" name="LUSEW"> F  </i>
   <i name="ENCUTGW">     -2.00000000</i>
   <i name="ENCUTGWSOFT">     -2.00000000</i>
   <i name="ENCUTLF">     -1.00000000</i>
   <i type="int" name="LMAXMP2">    -1</i>
   <i name="SCISSOR">      0.00000000</i>
   <i type="int" name="NOMEGA">     0</i>
   <i type="int" name="NOMEGAR">     0</i>
   <i type="int" name="NBANDSGW">    -1</i>
   <i type="int" name="NBANDSO">    -1</i>
   <i type="int" name="NBANDSV">    -1</i>
   <i type="int" name="NELM">  2000</i>
   <i type="int" name="NELMHF">     1</i>
   <i type="int" name="DIM">     3</i>
   <i type="int" name="ANTIRES">     0</i>
   <i name="OMEGAMAX">    -30.00000000</i>
   <i name="OMEGAMIN">    -30.00000000</i>
   <i name="OMEGATL">   -200.00000000</i>
   <i type="int" name="OMEGAGRID">   140</i>
   <i name="CSHIFT">     -0.10000000</i>
   <i type="logical" name="SELFENERGY"> F  </i>
   <i type="logical" name="LSPECTRAL"> F  </i>
   <i type="logical" name="LSPECTRALGW"> F  </i>
   <i type="logical" name="LSINGLES"> F  </i>
   <i type="logical" name="LFERMIGW"> F  </i>
   <i type="logical" name="ODDONLYGW"> F  </i>
   <i type="logical" name="EVENONLYGW"> F  </i>
   <i type="int" name="NKREDLFX">     1</i>
   <i type="int" name="NKREDLFY">     1</i>
   <i type="int" name="NKREDLFZ">     1</i>
   <i type="int" name="MAXMEM">  2800</i>
   <i type="int" name="TELESCOPE">     0</i>
   <i type="int" name="TAUPAR">     1</i>
   <i type="int" name="OMEGAPAR">    -1</i>
   <i name="LAMBDA">      1.00000000</i>
  </separator>
  <separator name="External order field" >
   <i name="OFIELD_KAPPA">      0.00000000</i>
   <v name="OFIELD_K">      0.00000000      0.00000000      0.00000000</v>
   <i name="OFIELD_Q6_NEAR">      0.00000000</i>
   <i name="OFIELD_Q6_FAR">      0.00000000</i>
   <i name="OFIELD_A">      0.00000000</i>
  </separator>
 </parameters>
 <atominfo>
  <atoms>       3 </atoms>
  <types>       1 </types>
  <array name="atoms" >
   <dimension dim="1">ion</dimension>
   <field type="string">element</field>
   <field type="int">atomtype</field>
   <set>
    <rc><c>Te</c><c>   1</c></rc>
    <rc><c>Te</c><c>   1</c></rc>
    <rc><c>Te</c><c>   1</c></rc>
   </set>
  </array>
  <array name="atomtypes" >
   <dimension dim="1">type</dimension>
   <field type="int">atomspertype</field>
   <field type="string">element</field>
   <field>mass</field>
   <field>valence</field>
   <field type="string">pseudopotential</field>
   <set>
    <rc><c>   3</c><c>Te</c><c>    127.60000000</c><c>      6.00000000</c><c>  PAW_PBE Te 08Apr2002                  </c></rc>
   </set>
  </array>
 </atominfo>
 <structure name="initialpos" >
  <crystal>
   <varray name="basis" >
    <v>       2.22346500      -3.85115435       0.00000000 </v>
    <v>       2.22346500       3.85115435       0.00000000 </v>
    <v>       0.00000000       0.00000000       5.91492000 </v>
   </varray>
   <i name="volume">    101.29781861 </i>
   <varray name="rec_basis" >
    <v>       0.22487424      -0.12983120       0.00000000 </v>
    <v>       0.22487424       0.12983120      -0.00000000 </v>
    <v>      -0.00000000       0.00000000       0.16906399 </v>
   </varray>
  </crystal>
  <varray name="positions" >
   <v>       0.26900000       0.00000000       0.16666667 </v>
   <v>       0.00000000       0.26900000       0.83333333 </v>
   <v>       0.73100000       0.73100000       0.50000000 </v>
  </varray>
  <varray name="selective"  type="logical" >
   <v type="logical" >  T  T  T </v>
   <v type="logical" >  T  T  T </v>
   <v type="logical" >  T  T  T </v>
  </varray>
  <nose>
   <v>      -3.00000000       0.00000000       0.00010000       0.00010000 </v>
  </nose>
 </structure>
 <calculation>
  <scstep>
   <time name="dav">    2.08    2.28</time>
   <time name="total">    2.56    2.79</time>
   <energy>
    <i name="alphaZ">      2.30757812 </i>
    <i name="ewald">   -676.11035698 </i>
    <i name="hartreedc">    -42.97582009 </i>
    <i name="XCdc">    -84.04960295 </i>
    <i name="pawpsdc">    623.23253030 </i>
    <i name="pawaedc">   -507.77874573 </i>
    <i name="eentropy">     -0.00321168 </i>
    <i name="bandstr">     87.82262663 </i>
    <i name="atom">    669.81418755 </i>
    <i name="e_fr_energy">     72.25918517 </i>
    <i name="e_wo_entrp">     72.26239685 </i>
    <i name="e_0_energy">     72.26079101 </i>
   </energy>
  </scstep>
  <scstep>
   <time name="dav">    2.31    2.51</time>
   <time name="total">    2.31    2.51</time>
   <energy>
    <i name="e_fr_energy">     -4.64701457 </i>
    <i name="e_wo_entrp">     -4.64701457 </i>
    <i name="e_0_energy">     -4.64701457 </i>
   </energy>
  </scstep>
  <scstep>
   <time name="dav">    1.85    1.90</time>
   <time name="total">    1.85    1.90</time>
   <energy>
    <i name="e_fr_energy">     -9.34217885 </i>
    <i name="e_wo_entrp">     -9.34217885 </i>
    <i name="e_0_energy">     -9.34217885 </i>
   </energy>
  </scstep>
  <scstep>
   <time name="dav">    2.11    2.27</time>
   <time name="total">    2.11    2.27</time>
   <energy>
    <i name="e_fr_energy">     -9.42785338 </i>
    <i name="e_wo_entrp">     -9.42785338 </i>
    <i name="e_0_energy">     -9.42785338 </i>
   </energy>
  </scstep>
  <scstep>
   <time name="dav">    1.80    1.83</time>
   <time name="total">    2.00    2.04</time>
   <energy>
    <i name="e_fr_energy">     -9.42921314 </i>
    <i name="e_wo_entrp">     -9.42921314 </i>
    <i name="e_0_energy">     -9.42921314 </i>
   </energy>
  </scstep>
  <scstep>
   <time name="dav">    2.03    2.33</time>
   <time name="total">    2.57    2.96</time>
   <energy>
    <i name="e_fr_energy">     -9.41459156 </i>
    <i name="e_wo_entrp">     -9.41459156 </i>
    <i name="e_0_energy">     -9.41459156 </i>
   </energy>
  </scstep>
  <scstep>
   <time name="dav">    1.73    1.78</time>
   <time name="total">    2.23    2.33</time>
   <energy>
    <i name="e_fr_energy">     -9.41287748 </i>
    <i name="e_wo_entrp">     -9.41287748 </i>
    <i name="e_0_energy">     -9.41287748 </i>
   </energy>
  </scstep>
  <scstep>
   <time name="dav">    1.60    1.64</time>
   <time name="total">    2.09    2.14</time>
   <energy>
    <i name="e_fr_energy">     -9.41226763 </i>
    <i name="e_wo_entrp">     -9.41226763 </i>
    <i name="e_0_energy">     -9.41226763 </i>
   </energy>
  </scstep>
  <scstep>
   <time name="dav">    2.01    2.06</time>
   <time name="total">    2.49    2.55</time>
   <energy>
    <i name="e_fr_energy">     -9.41229904 </i>
    <i name="e_wo_entrp">     -9.41229904 </i>
    <i name="e_0_energy">     -9.41229904 </i>
   </energy>
  </scstep>
  <scstep>
   <time name="dav">    1.63    1.67</time>
   <time name="total">    2.13    2.18</time>
   <energy>
    <i name="e_fr_energy">     -9.41234162 </i>
    <i name="e_wo_entrp">     -9.41234162 </i>
    <i name="e_0_energy">     -9.41234162 </i>
   </energy>
  </scstep>
  <scstep>
   <time name="dav">    1.92    1.99</time>
   <time name="total">    2.42    2.53</time>
   <energy>
    <i name="e_fr_energy">     -9.41233583 </i>
    <i name="e_wo_entrp">     -9.41233583 </i>
    <i name="e_0_energy">     -9.41233583 </i>
   </energy>
  </scstep>
  <scstep>
   <time name="dav">    1.38    1.41</time>
   <time name="total">    1.73    1.77</time>
   <energy>
    <i name="alphaZ">      2.30757812 </i>
    <i name="ewald">   -676.11035698 </i>
    <i name="hartreedc">    -43.17779297 </i>
    <i name="XCdc">    -83.91734871 </i>
    <i name="pawpsdc">   1561.57722732 </i>
    <i name="pawaedc">  -1446.22676837 </i>
    <i name="eentropy">     -0.00000000 </i>
    <i name="bandstr">      6.32093808 </i>
    <i name="atom">    669.81418755 </i>
    <i name="e_fr_energy">     -9.41233597 </i>
    <i name="e_wo_entrp">     -9.41233597 </i>
    <i name="e_0_energy">     -9.41233597 </i>
   </energy>
  </scstep>
  <structure>
   <crystal>
    <varray name="basis" >
     <v>       2.22346500      -3.85115435       0.00000000 </v>
     <v>       2.22346500       3.85115435       0.00000000 </v>
     <v>       0.00000000       0.00000000       5.91492000 </v>
    </varray>
    <i name="volume">    101.29781861 </i>
    <varray name="rec_basis" >
     <v>       0.22487424      -0.12983120       0.00000000 </v>
     <v>       0.22487424       0.12983120      -0.00000000 </v>
     <v>      -0.00000000       0.00000000       0.16906399 </v>
    </varray>
   </crystal>
   <varray name="positions" >
    <v>       0.26900000       0.00000000       0.16666667 </v>
    <v>       0.00000000       0.26900000       0.83333333 </v>
    <v>       0.73100000       0.73100000       0.50000000 </v>
   </varray>
  </structure>
  <varray name="forces" >
   <v>       0.09271845      -0.16059306      -0.00000000 </v>
   <v>       0.09271845       0.16059306       0.00000000 </v>
   <v>      -0.18543689       0.00000000       0.00000000 </v>
  </varray>
  <varray name="stress" >
   <v>      15.24737993       0.00000000       0.00000000 </v>
   <v>       0.00000000      15.24737993      -0.00000000 </v>
   <v>       0.00000000      -0.00000000      20.52555118 </v>
  </varray>
  <energy>
   <i name="e_fr_energy">     -9.41233597 </i>
   <i name="e_wo_entrp">     -9.41233597 </i>
   <i name="e_0_energy">     -0.00000000 </i>
  </energy>
  <time name="totalsc">   29.30   30.85</time>
 </calculation>
 <calculation>
  <scstep>
   <time name="dav">    1.59    1.62</time>
   <time name="total">    2.06    2.10</time>
   <energy>
    <i name="alphaZ">      2.19192035 </i>
    <i name="ewald">   -665.19581721 </i>
    <i name="hartreedc">    -42.11047707 </i>
    <i name="XCdc">    -84.13349391 </i>
    <i name="pawpsdc">   1561.69692215 </i>
    <i name="pawaedc">  -1446.34644358 </i>
    <i name="eentropy">     -0.00000000 </i>
    <i name="bandstr">     -5.43608715 </i>
    <i name="atom">    669.81418755 </i>
    <i name="e_fr_energy">     -9.51928887 </i>
    <i name="e_wo_entrp">     -9.51928887 </i>
    <i name="e_0_energy">     -9.51928887 </i>
   </energy>
  </scstep>
  <scstep>
   <time name="dav">    1.60    1.62</time>
   <time name="total">    2.09    2.13</time>
   <energy>
    <i name="e_fr_energy">     -9.45465013 </i>
    <i name="e_wo_entrp">     -9.45465013 </i>
    <i name="e_0_energy">     -9.45465013 </i>
   </energy>
  </scstep>
  <scstep>
   <time name="dav">    1.90    1.98</time>
   <time name="total">    2.42    2.54</time>
   <energy>
    <i name="e_fr_energy">     -9.43041439 </i>
    <i name="e_wo_entrp">     -9.43041439 </i>
    <i name="e_0_energy">     -9.43041439 </i>
   </energy>
  </scstep>
  <scstep>
   <time name="dav">    1.74    1.88</time>
   <time name="total">    2.24    2.43</time>
   <energy>
    <i name="e_fr_energy">     -9.42256443 </i>
    <i name="e_wo_entrp">     -9.42256443 </i>
    <i name="e_0_energy">     -9.42256443 </i>
   </energy>
  </scstep>
  <scstep>
   <time name="dav">    2.29    2.43</time>
   <time name="total">    2.79    2.95</time>
   <energy>
    <i name="e_fr_energy">     -9.42245149 </i>
    <i name="e_wo_entrp">     -9.42245149 </i>
    <i name="e_0_energy">     -9.42245149 </i>
   </energy>
  </scstep>
  <scstep>
   <time name="dav">    2.18    2.40</time>
   <time name="total">    2.76    3.16</time>
   <energy>
    <i name="e_fr_energy">     -9.42246262 </i>
    <i name="e_wo_entrp">     -9.42246262 </i>
    <i name="e_0_energy">     -9.42246262 </i>
   </energy>
  </scstep>
  <scstep>
   <time name="dav">    1.50    1.55</time>
   <time name="total">    2.00    2.06</time>
   <energy>
    <i name="e_fr_energy">     -9.42246428 </i>
    <i name="e_wo_entrp">     -9.42246428 </i>
    <i name="e_0_energy">     -9.42246428 </i>
   </energy>
  </scstep>
  <scstep>
   <time name="dav">    1.35    1.41</time>
   <time name="total">    1.86    1.94</time>
   <energy>
    <i name="e_fr_energy">     -9.42246572 </i>
    <i name="e_wo_entrp">     -9.42246572 </i>
    <i name="e_0_energy">     -9.42246572 </i>
   </energy>
  </scstep>
  <scstep>
   <time name="dav">    1.07    1.09</time>
   <time name="total">    1.42    1.44</time>
   <energy>
    <i name="alphaZ">      2.19192035 </i>
    <i name="ewald">   -665.19581721 </i>
    <i name="hartreedc">    -45.61408335 </i>
    <i name="XCdc">    -84.27251344 </i>
    <i name="pawpsdc">   1422.70483797 </i>
    <i name="pawaedc">  -1307.30045532 </i>
    <i name="eentropy">     -0.00000000 </i>
    <i name="bandstr">     -1.75054256 </i>
    <i name="atom">    669.81418755 </i>
    <i name="e_fr_energy">     -9.42246601 </i>
    <i name="e_wo_entrp">     -9.42246601 </i>
    <i name="e_0_energy">     -9.42246601 </i>
   </energy>
  </scstep>
  <structure>
   <crystal>
    <varray name="basis" >
     <v>       2.25793371      -3.91085590       0.00000000 </v>
     <v>       2.25793371       3.91085590      -0.00000000 </v>
     <v>       0.00000000      -0.00000000       6.03835637 </v>
    </varray>
    <i name="volume">    106.64284848 </i>
    <varray name="rec_basis" >
     <v>       0.22144140      -0.12784925      -0.00000000 </v>
     <v>       0.22144140       0.12784925       0.00000000 </v>
     <v>       0.00000000       0.00000000       0.16560798 </v>
    </varray>
   </crystal>
   <varray name="positions" >
    <v>       0.27101172       0.00000000       0.16666667 </v>
    <v>       0.00000000       0.27101172       0.83333333 </v>
    <v>       0.72898828       0.72898828       0.50000000 </v>
   </varray>
  </structure>
  <varray name="forces" >
   <v>      -0.06149385       0.10651047      -0.00000000 </v>
   <v>      -0.06149385      -0.10651047       0.00000000 </v>
   <v>       0.12298770      -0.00000000       0.00000000 </v>
  </varray>
  <varray name="stress" >
   <v>      -7.40710625       0.00000000      -0.00000000 </v>
   <v>       0.00000000      -7.40710625       0.00000000 </v>
   <v>       0.00000000      -0.00000000     -14.36735177 </v>
  </varray>
  <energy>
   <i name="e_fr_energy">     -9.42246601 </i>
   <i name="e_wo_entrp">     -9.42246601 </i>
   <i name="e_0_energy">     -0.00000000 </i>
  </energy>
  <time name="totalsc">   21.97   23.14</time>
 </calculation>
 <calculation>
  <scstep>
   <time name="dav">    1.58    1.61</time>
   <time name="total">    2.07    2.11</time>
   <energy>
    <i name="alphaZ">      2.23794070 </i>
    <i name="ewald">   -669.59020324 </i>
    <i name="hartreedc">    -46.06759727 </i>
    <i name="XCdc">    -84.18817612 </i>
    <i name="pawpsdc">   1422.72577004 </i>
    <i name="pawaedc">  -1307.32140403 </i>
    <i name="eentropy">     -0.00000000 </i>
    <i name="bandstr">      2.94310594 </i>
    <i name="atom">    669.81418755 </i>
    <i name="e_fr_energy">     -9.44637643 </i>
    <i name="e_wo_entrp">     -9.44637643 </i>
    <i name="e_0_energy">     -9.44637643 </i>
   </energy>
  </scstep>
  <scstep>
   <time name="dav">    1.57    1.60</time>
   <time name="total">    2.04    2.08</time>
   <energy>
    <i name="e_fr_energy">     -9.43555936 </i>
    <i name="e_wo_entrp">     -9.43555936 </i>
    <i name="e_0_energy">     -9.43555936 </i>
   </energy>
  </scstep>
  <scstep>
   <time name="dav">    1.72    1.77</time>
   <time name="total">    2.22    2.29</time>
   <energy>
    <i name="e_fr_energy">     -9.43123397 </i>
    <i name="e_wo_entrp">     -9.43123397 </i>
    <i name="e_0_energy">     -9.43123397 </i>
   </energy>
  </scstep>
  <scstep>
   <time name="dav">    1.73    1.79</time>
   <time name="total">    2.23    2.33</time>
   <energy>
    <i name="e_fr_energy">     -9.43032806 </i>
    <i name="e_wo_entrp">     -9.43032806 </i>
    <i name="e_0_energy">     -9.43032806 </i>
   </energy>
  </scstep>
  <scstep>
   <time name="dav">    2.03    2.06</time>
   <time name="total">    2.50    2.55</time>
   <energy>
    <i name="e_fr_energy">     -9.43029902 </i>
    <i name="e_wo_entrp">     -9.43029902 </i>
    <i name="e_0_energy">     -9.43029902 </i>
   </energy>
  </scstep>
  <scstep>
   <time name="dav">    1.81    1.84</time>
   <time name="total">    2.16    2.19</time>
   <energy>
    <i name="alphaZ">      2.23794070 </i>
    <i name="ewald">   -669.59020324 </i>
    <i name="hartreedc">    -44.61823744 </i>
    <i name="XCdc">    -84.13042440 </i>
    <i name="pawpsdc">   1475.78976646 </i>
    <i name="pawaedc">  -1360.40647145 </i>
    <i name="eentropy">     -0.00000000 </i>
    <i name="bandstr">      1.47314352 </i>
    <i name="atom">    669.81418755 </i>
    <i name="e_fr_energy">     -9.43029829 </i>
    <i name="e_wo_entrp">     -9.43029829 </i>
    <i name="e_0_energy">     -9.43029829 </i>
   </energy>
  </scstep>
  <structure>
   <crystal>
    <varray name="basis" >
     <v>       2.24393287      -3.88660574       0.00000000 </v>
     <v>       2.24393287       3.88660574      -0.00000000 </v>
     <v>       0.00000000      -0.00000000       5.98821779 </v>
    </varray>
    <i name="volume">    104.44987656 </i>
    <varray name="rec_basis" >
     <v>       0.22282306      -0.12864696      -0.00000000 </v>
     <v>       0.22282306       0.12864696       0.00000000 </v>
     <v>       0.00000000       0.00000000       0.16699459 </v>
    </varray>
   </crystal>
   <varray name="positions" >
    <v>       0.27020705       0.00000000       0.16666667 </v>
    <v>       0.00000000       0.27020705       0.83333333 </v>
    <v>       0.72979295       0.72979295       0.50000000 </v>
   </varray>
  </structure>
  <varray name="forces" >
   <v>      -0.00365166       0.00632486      -0.00000000 </v>
   <v>      -0.00365166      -0.00632486       0.00000000 </v>
   <v>       0.00730332      -0.00000000      -0.00000000 </v>
  </varray>
  <varray name="stress" >
   <v>       1.02849207       0.00000000      -0.00000000 </v>
   <v>       0.00000000       1.02849207       0.00000000 </v>
   <v>       0.00000000       0.00000000      -1.37375058 </v>
  </varray>
  <energy>
   <i name="e_fr_energy">     -9.43029829 </i>
   <i name="e_wo_entrp">     -9.43029829 </i>
   <i name="e_0_energy">     -0.00000000 </i>
  </energy>
  <time name="totalsc">   15.53   15.92</time>
 </calculation>
 <calculation>
  <scstep>
   <time name="dav">    1.61    1.65</time>
   <time name="total">    2.09    2.15</time>
   <energy>
    <i name="alphaZ">      2.23601258 </i>
    <i name="ewald">   -669.32580063 </i>
    <i name="hartreedc">    -44.62840949 </i>
    <i name="XCdc">    -84.13292784 </i>
    <i name="pawpsdc">   1475.96192643 </i>
    <i name="pawaedc">  -1360.57824609 </i>
    <i name="eentropy">     -0.00000000 </i>
    <i name="bandstr">      1.22265247 </i>
    <i name="atom">    669.81418755 </i>
    <i name="e_fr_energy">     -9.43060503 </i>
    <i name="e_wo_entrp">     -9.43060503 </i>
    <i name="e_0_energy">     -9.43060503 </i>
   </energy>
  </scstep>
  <scstep>
   <time name="dav">    1.91    2.17</time>
   <time name="total">    2.45    2.74</time>
   <energy>
    <i name="e_fr_energy">     -9.43055771 </i>
    <i name="e_wo_entrp">     -9.43055771 </i>
    <i name="e_0_energy">     -9.43055771 </i>
   </energy>
  </scstep>
  <scstep>
   <time name="dav">    2.02    2.21</time>
   <time name="total">    2.48    2.68</time>
   <energy>
    <i name="e_fr_energy">     -9.43053418 </i>
    <i name="e_wo_entrp">     -9.43053418 </i>
    <i name="e_0_energy">     -9.43053418 </i>
   </energy>
  </scstep>
  <scstep>
   <time name="dav">    1.64    1.67</time>
   <time name="total">    2.11    2.16</time>
   <energy>
    <i name="e_fr_energy">     -9.43053194 </i>
    <i name="e_wo_entrp">     -9.43053194 </i>
    <i name="e_0_energy">     -9.43053194 </i>
   </energy>
  </scstep>
  <scstep>
   <time name="dav">    1.08    1.10</time>
   <time name="total">    1.42    1.45</time>
   <energy>
    <i name="alphaZ">      2.23601258 </i>
    <i name="ewald">   -669.32580063 </i>
    <i name="hartreedc">    -44.72666730 </i>
    <i name="XCdc">    -84.13335346 </i>
    <i name="pawpsdc">   1476.14556633 </i>
    <i name="pawaedc">  -1360.76192922 </i>
    <i name="eentropy">     -0.00000000 </i>
    <i name="bandstr">      1.32145240 </i>
    <i name="atom">    669.81418755 </i>
    <i name="e_fr_energy">     -9.43053174 </i>
    <i name="e_wo_entrp">     -9.43053174 </i>
    <i name="e_0_energy">     -9.43053174 </i>
   </energy>
  </scstep>
  <structure>
   <crystal>
    <varray name="basis" >
     <v>       2.24629374      -3.89069488      -0.00000000 </v>
     <v>       2.24629374       3.89069488       0.00000000 </v>
     <v>       0.00000000      -0.00000000       5.98078992 </v>
    </varray>
    <i name="volume">    104.53994393 </i>
    <varray name="rec_basis" >
     <v>       0.22258888      -0.12851175      -0.00000000 </v>
     <v>       0.22258888       0.12851175       0.00000000 </v>
     <v>       0.00000000      -0.00000000       0.16720199 </v>
    </varray>
   </crystal>
   <varray name="positions" >
    <v>       0.27014283       0.00000000       0.16666667 </v>
    <v>       0.00000000       0.27014283       0.83333333 </v>
    <v>       0.72985717       0.72985717       0.50000000 </v>
   </varray>
  </structure>
  <varray name="forces" >
   <v>      -0.00434219       0.00752089       0.00000000 </v>
   <v>      -0.00434219      -0.00752089      -0.00000000 </v>
   <v>       0.00868437      -0.00000000      -0.00000000 </v>
  </varray>
  <varray name="stress" >
   <v>       0.87349458       0.00000000       0.00000000 </v>
   <v>       0.00000000       0.87349458      -0.00000000 </v>
   <v>       0.00000000      -0.00000000      -1.03127237 </v>
  </varray>
  <energy>
   <i name="e_fr_energy">     -9.43053174 </i>
   <i name="e_wo_entrp">     -9.43053174 </i>
   <i name="e_0_energy">     -0.00000000 </i>
  </energy>
  <time name="totalsc">   12.85   13.52</time>
 </calculation>
 <calculation>
  <scstep>
   <time name="dav">    1.68    1.72</time>
   <time name="total">    2.16    2.22</time>
   <energy>
    <i name="alphaZ">      2.23028838 </i>
    <i name="ewald">   -668.53954291 </i>
    <i name="hartreedc">    -44.76385648 </i>
    <i name="XCdc">    -84.14000952 </i>
    <i name="pawpsdc">   1476.10805352 </i>
    <i name="pawaedc">  -1360.72444700 </i>
    <i name="eentropy">     -0.00000000 </i>
    <i name="bandstr">      0.58375342 </i>
    <i name="atom">    669.81418755 </i>
    <i name="e_fr_energy">     -9.43157305 </i>
    <i name="e_wo_entrp">     -9.43157305 </i>
    <i name="e_0_energy">     -9.43157305 </i>
   </energy>
  </scstep>
  <scstep>
   <time name="dav">    1.67    1.70</time>
   <time name="total">    2.15    2.19</time>
   <energy>
    <i name="e_fr_energy">     -9.43114894 </i>
    <i name="e_wo_entrp">     -9.43114894 </i>
    <i name="e_0_energy">     -9.43114894 </i>
   </energy>
  </scstep>
  <scstep>
   <time name="dav">    1.82    1.85</time>
   <time name="total">    2.28    2.33</time>
   <energy>
    <i name="e_fr_energy">     -9.43094540 </i>
    <i name="e_wo_entrp">     -9.43094540 </i>
    <i name="e_0_energy">     -9.43094540 </i>
   </energy>
  </scstep>
  <scstep>
   <time name="dav">    1.67    1.70</time>
   <time name="total">    2.14    2.19</time>
   <energy>
    <i name="e_fr_energy">     -9.43092650 </i>
    <i name="e_wo_entrp">     -9.43092650 </i>
    <i name="e_0_energy">     -9.43092650 </i>
   </energy>
  </scstep>
  <scstep>
   <time name="dav">    1.71    1.75</time>
   <time name="total">    2.18    2.23</time>
   <energy>
    <i name="e_fr_energy">     -9.43092567 </i>
    <i name="e_wo_entrp">     -9.43092567 </i>
    <i name="e_0_energy">     -9.43092567 </i>
   </energy>
  </scstep>
  <scstep>
   <time name="dav">    1.10    1.13</time>
   <time name="total">    1.44    1.48</time>
   <energy>
    <i name="alphaZ">      2.23028838 </i>
    <i name="ewald">   -668.53954291 </i>
    <i name="hartreedc">    -45.06213325 </i>
    <i name="XCdc">    -84.14043488 </i>
    <i name="pawpsdc">   1475.62088702 </i>
    <i name="pawaedc">  -1360.23740158 </i>
    <i name="eentropy">     -0.00000000 </i>
    <i name="bandstr">      0.88322393 </i>
    <i name="atom">    669.81418755 </i>
    <i name="e_fr_energy">     -9.43092574 </i>
    <i name="e_wo_entrp">     -9.43092574 </i>
    <i name="e_0_energy">     -9.43092574 </i>
   </energy>
  </scstep>
  <structure>
   <crystal>
    <varray name="basis" >
     <v>       2.25337633      -3.90296230      -0.00000000 </v>
     <v>       2.25337633       3.90296230       0.00000000 </v>
     <v>       0.00000000      -0.00000000       5.95850631 </v>
    </varray>
    <i name="volume">    104.80825339 </i>
    <varray name="rec_basis" >
     <v>       0.22188926      -0.12810782      -0.00000000 </v>
     <v>       0.22188926       0.12810782       0.00000000 </v>
     <v>       0.00000000      -0.00000000       0.16782730 </v>
    </varray>
   </crystal>
   <varray name="positions" >
    <v>       0.26995036       0.00000000       0.16666667 </v>
    <v>       0.00000000       0.26995036       0.83333333 </v>
    <v>       0.73004964       0.73004964       0.50000000 </v>
   </varray>
  </structure>
  <varray name="forces" >
   <v>      -0.00638082       0.01105190       0.00000000 </v>
   <v>      -0.00638082      -0.01105190      -0.00000000 </v>
   <v>       0.01276164       0.00000000      -0.00000000 </v>
  </varray>
  <varray name="stress" >
   <v>       0.27416694       0.00000000       0.00000000 </v>
   <v>       0.00000000       0.27416694      -0.00000000 </v>
   <v>       0.00000000       0.00000000      -0.08553102 </v>
  </varray>
  <energy>
   <i name="e_fr_energy">     -9.43092574 </i>
   <i name="e_wo_entrp">     -9.43092574 </i>
   <i name="e_0_energy">     -0.00000000 </i>
  </energy>
  <time name="totalsc">   14.76   15.12</time>
 </calculation>
 <calculation>
  <scstep>
   <time name="dav">    1.56    1.59</time>
   <time name="total">    2.03    2.07</time>
   <energy>
    <i name="alphaZ">      2.22825528 </i>
    <i name="ewald">   -668.25984598 </i>
    <i name="hartreedc">    -45.07615774 </i>
    <i name="XCdc">    -84.14261574 </i>
    <i name="pawpsdc">   1475.29682819 </i>
    <i name="pawaedc">  -1359.91338395 </i>
    <i name="eentropy">     -0.00000000 </i>
    <i name="bandstr">      0.62169319 </i>
    <i name="atom">    669.81418755 </i>
    <i name="e_fr_energy">     -9.43103920 </i>
    <i name="e_wo_entrp">     -9.43103920 </i>
    <i name="e_0_energy">     -9.43103920 </i>
   </energy>
  </scstep>
  <scstep>
   <time name="dav">    1.63    1.66</time>
   <time name="total">    2.10    2.15</time>
   <energy>
    <i name="e_fr_energy">     -9.43098530 </i>
    <i name="e_wo_entrp">     -9.43098530 </i>
    <i name="e_0_energy">     -9.43098530 </i>
   </energy>
  </scstep>
  <scstep>
   <time name="dav">    1.83    1.87</time>
   <time name="total">    2.30    2.35</time>
   <energy>
    <i name="e_fr_energy">     -9.43095901 </i>
    <i name="e_wo_entrp">     -9.43095901 </i>
    <i name="e_0_energy">     -9.43095901 </i>
   </energy>
  </scstep>
  <scstep>
   <time name="dav">    1.65    1.67</time>
   <time name="total">    2.13    2.16</time>
   <energy>
    <i name="e_fr_energy">     -9.43095647 </i>
    <i name="e_wo_entrp">     -9.43095647 </i>
    <i name="e_0_energy">     -9.43095647 </i>
   </energy>
  </scstep>
  <scstep>
   <time name="dav">    1.18    1.21</time>
   <time name="total">    1.55    1.59</time>
   <energy>
    <i name="alphaZ">      2.22825528 </i>
    <i name="ewald">   -668.25984598 </i>
    <i name="hartreedc">    -45.18133885 </i>
    <i name="XCdc">    -84.14278067 </i>
    <i name="pawpsdc">   1475.14506385 </i>
    <i name="pawaedc">  -1359.76176470 </i>
    <i name="eentropy">     -0.00000000 </i>
    <i name="bandstr">      0.72726714 </i>
    <i name="atom">    669.81418755 </i>
    <i name="e_fr_energy">     -9.43095636 </i>
    <i name="e_wo_entrp">     -9.43095636 </i>
    <i name="e_0_energy">     -9.43095636 </i>
   </energy>
  </scstep>
  <structure>
   <crystal>
    <varray name="basis" >
     <v>       2.25591903      -3.90736637      -0.00000000 </v>
     <v>       2.25591903       3.90736637       0.00000000 </v>
     <v>       0.00000000      -0.00000000       5.95050636 </v>
    </varray>
    <i name="volume">    104.90388227 </i>
    <varray name="rec_basis" >
     <v>       0.22163916      -0.12796343      -0.00000000 </v>
     <v>       0.22163916       0.12796343       0.00000000 </v>
     <v>       0.00000000      -0.00000000       0.16805293 </v>
    </varray>
   </crystal>
   <varray name="positions" >
    <v>       0.26988148       0.00000000       0.16666667 </v>
    <v>       0.00000000       0.26988148       0.83333333 </v>
    <v>       0.73011852       0.73011852       0.50000000 </v>
   </varray>
  </structure>
  <varray name="forces" >
   <v>      -0.00710960       0.01231419       0.00000000 </v>
   <v>      -0.00710960      -0.01231419      -0.00000000 </v>
   <v>       0.01421920       0.00000000      -0.00000000 </v>
  </varray>
  <varray name="stress" >
   <v>       0.09224545       0.00000000       0.00000000 </v>
   <v>       0.00000000       0.09224545       0.00000000 </v>
   <v>      -0.00000000       0.00000000       0.25866437 </v>
  </varray>
  <energy>
   <i name="e_fr_energy">     -9.43095636 </i>
   <i name="e_wo_entrp">     -9.43095636 </i>
   <i name="e_0_energy">     -0.00000000 </i>
  </energy>
  <time name="totalsc">   12.48   12.76</time>
 </calculation>
 <calculation>
  <scstep>
   <time name="dav">    1.53    1.55</time>
   <time name="total">    2.00    2.04</time>
   <energy>
    <i name="alphaZ">      2.22613262 </i>
    <i name="ewald">   -667.98240967 </i>
    <i name="hartreedc">    -45.21146697 </i>
    <i name="XCdc">    -84.14376473 </i>
    <i name="pawpsdc">   1475.10324196 </i>
    <i name="pawaedc">  -1359.71996896 </i>
    <i name="eentropy">     -0.00000000 </i>
    <i name="bandstr">      0.48300632 </i>
    <i name="atom">    669.81418755 </i>
    <i name="e_fr_energy">     -9.43104186 </i>
    <i name="e_wo_entrp">     -9.43104186 </i>
    <i name="e_0_energy">     -9.43104186 </i>
   </energy>
  </scstep>
  <scstep>
   <time name="dav">    1.67    1.70</time>
   <time name="total">    2.13    2.18</time>
   <energy>
    <i name="e_fr_energy">     -9.43102660 </i>
    <i name="e_wo_entrp">     -9.43102660 </i>
    <i name="e_0_energy">     -9.43102660 </i>
   </energy>
  </scstep>
  <scstep>
   <time name="dav">    1.70    1.74</time>
   <time name="total">    2.19    2.24</time>
   <energy>
    <i name="e_fr_energy">     -9.43101359 </i>
    <i name="e_wo_entrp">     -9.43101359 </i>
    <i name="e_0_energy">     -9.43101359 </i>
   </energy>
  </scstep>
  <scstep>
   <time name="dav">    1.56    1.60</time>
   <time name="total">    2.05    2.09</time>
   <energy>
    <i name="e_fr_energy">     -9.43101108 </i>
    <i name="e_wo_entrp">     -9.43101108 </i>
    <i name="e_0_energy">     -9.43101108 </i>
   </energy>
  </scstep>
  <scstep>
   <time name="dav">    1.10    1.14</time>
   <time name="total">    1.47    1.51</time>
   <energy>
    <i name="alphaZ">      2.22613262 </i>
    <i name="ewald">   -667.98240967 </i>
    <i name="hartreedc">    -45.28507035 </i>
    <i name="XCdc">    -84.14611775 </i>
    <i name="pawpsdc">   1474.30066543 </i>
    <i name="pawaedc">  -1358.91765799 </i>
    <i name="eentropy">     -0.00000000 </i>
    <i name="bandstr">      0.55925893 </i>
    <i name="atom">    669.81418755 </i>
    <i name="e_fr_energy">     -9.43101123 </i>
    <i name="e_wo_entrp">     -9.43101123 </i>
    <i name="e_0_energy">     -9.43101123 </i>
   </energy>
  </scstep>
  <structure>
   <crystal>
    <varray name="basis" >
     <v>       2.25676524      -3.90883205      -0.00000000 </v>
     <v>       2.25676524       3.90883205       0.00000000 </v>
     <v>      -0.00000000       0.00000000       5.95171437 </v>
    </varray>
    <i name="volume">    105.00390991 </i>
    <varray name="rec_basis" >
     <v>       0.22155605      -0.12791545       0.00000000 </v>
     <v>       0.22155605       0.12791545      -0.00000000 </v>
     <v>       0.00000000      -0.00000000       0.16801882 </v>
    </varray>
   </crystal>
   <varray name="positions" >
    <v>       0.26961495       0.00000000       0.16666667 </v>
    <v>       0.00000000       0.26961495       0.83333333 </v>
    <v>       0.73038505       0.73038505       0.50000000 </v>
   </varray>
  </structure>
  <varray name="forces" >
   <v>      -0.00620865       0.01075371       0.00000000 </v>
   <v>      -0.00620865      -0.01075371      -0.00000000 </v>
   <v>       0.01241731      -0.00000000      -0.00000000 </v>
  </varray>
  <varray name="stress" >
   <v>      -0.00453175       0.00000000       0.00000000 </v>
   <v>       0.00000000      -0.00453175      -0.00000000 </v>
   <v>      -0.00000000       0.00000000       0.08771335 </v>
  </varray>
  <energy>
   <i name="e_fr_energy">     -9.43101123 </i>
   <i name="e_wo_entrp">     -9.43101123 </i>
   <i name="e_0_energy">     -0.00000000 </i>
  </energy>
  <time name="totalsc">   12.18   12.44</time>
 </calculation>
 <calculation>
  <scstep>
   <time name="dav">    1.52    1.55</time>
   <time name="total">    2.00    2.05</time>
   <energy>
    <i name="alphaZ">      2.21978108 </i>
    <i name="ewald">   -667.14912199 </i>
    <i name="hartreedc">    -45.37515263 </i>
    <i name="XCdc">    -84.14910551 </i>
    <i name="pawpsdc">   1474.08125454 </i>
    <i name="pawaedc">  -1358.69794810 </i>
    <i name="eentropy">     -0.00000000 </i>
    <i name="bandstr">     -0.17524756 </i>
    <i name="atom">    669.81418755 </i>
    <i name="e_fr_energy">     -9.43135263 </i>
    <i name="e_wo_entrp">     -9.43135263 </i>
    <i name="e_0_energy">     -9.43135263 </i>
   </energy>
  </scstep>
  <scstep>
   <time name="dav">    1.67    1.70</time>
   <time name="total">    2.13    2.18</time>
   <energy>
    <i name="e_fr_energy">     -9.43121241 </i>
    <i name="e_wo_entrp">     -9.43121241 </i>
    <i name="e_0_energy">     -9.43121241 </i>
   </energy>
  </scstep>
  <scstep>
   <time name="dav">    1.65    1.68</time>
   <time name="total">    2.13    2.17</time>
   <energy>
    <i name="e_fr_energy">     -9.43109863 </i>
    <i name="e_wo_entrp">     -9.43109863 </i>
    <i name="e_0_energy">     -9.43109863 </i>
   </energy>
  </scstep>
  <scstep>
   <time name="dav">    1.66    1.70</time>
   <time name="total">    2.15    2.21</time>
   <energy>
    <i name="e_fr_energy">     -9.43107647 </i>
    <i name="e_wo_entrp">     -9.43107647 </i>
    <i name="e_0_energy">     -9.43107647 </i>
   </energy>
  </scstep>
  <scstep>
   <time name="dav">    1.32    1.35</time>
   <time name="total">    1.70    1.74</time>
   <energy>
    <i name="alphaZ">      2.21978108 </i>
    <i name="ewald">   -667.14912199 </i>
    <i name="hartreedc">    -45.59476265 </i>
    <i name="XCdc">    -84.15634455 </i>
    <i name="pawpsdc">   1472.12034878 </i>
    <i name="pawaedc">  -1356.73779245 </i>
    <i name="eentropy">     -0.00000000 </i>
    <i name="bandstr">      0.05262745 </i>
    <i name="atom">    669.81418755 </i>
    <i name="e_fr_energy">     -9.43107678 </i>
    <i name="e_wo_entrp">     -9.43107678 </i>
    <i name="e_0_energy">     -9.43107678 </i>
   </energy>
  </scstep>
  <structure>
   <crystal>
    <varray name="basis" >
     <v>       2.25930387      -3.91322910      -0.00000000 </v>
     <v>       2.25930387       3.91322910       0.00000000 </v>
     <v>      -0.00000000       0.00000000       5.95533839 </v>
    </varray>
    <i name="volume">    105.30436187 </i>
    <varray name="rec_basis" >
     <v>       0.22130711      -0.12777172       0.00000000 </v>
     <v>       0.22130711       0.12777172      -0.00000000 </v>
     <v>      -0.00000000      -0.00000000       0.16791657 </v>
    </varray>
   </crystal>
   <varray name="positions" >
    <v>       0.26881567       0.00000000       0.16666667 </v>
    <v>       0.00000000       0.26881567       0.83333333 </v>
    <v>       0.73118433       0.73118433       0.50000000 </v>
   </varray>
  </structure>
  <varray name="forces" >
   <v>      -0.00346837       0.00600740       0.00000000 </v>
   <v>      -0.00346837      -0.00600740      -0.00000000 </v>
   <v>       0.00693675      -0.00000000       0.00000000 </v>
  </varray>
  <varray name="stress" >
   <v>      -0.20635253       0.00000000      -0.00000000 </v>
   <v>       0.00000000      -0.20635253       0.00000000 </v>
   <v>      -0.00000000      -0.00000000      -0.38895165 </v>
  </varray>
  <energy>
   <i name="e_fr_energy">     -9.43107678 </i>
   <i name="e_wo_entrp">     -9.43107678 </i>
   <i name="e_0_energy">     -0.00000000 </i>
  </energy>
  <time name="totalsc">   12.45   12.74</time>
 </calculation>
 <calculation>
  <scstep>
   <time name="dav">    1.52    1.55</time>
   <time name="total">    2.00    2.04</time>
   <energy>
    <i name="alphaZ">      2.21808466 </i>
    <i name="ewald">   -666.92580739 </i>
    <i name="hartreedc">    -45.62499739 </i>
    <i name="XCdc">    -84.15740705 </i>
    <i name="pawpsdc">   1471.43123390 </i>
    <i name="pawaedc">  -1356.04778166 </i>
    <i name="eentropy">     -0.00000000 </i>
    <i name="bandstr">     -0.13860501 </i>
    <i name="atom">    669.81418755 </i>
    <i name="e_fr_energy">     -9.43109238 </i>
    <i name="e_wo_entrp">     -9.43109238 </i>
    <i name="e_0_energy">     -9.43109238 </i>
   </energy>
  </scstep>
  <scstep>
   <time name="dav">    1.65    1.69</time>
   <time name="total">    2.14    2.19</time>
   <energy>
    <i name="e_fr_energy">     -9.43108274 </i>
    <i name="e_wo_entrp">     -9.43108274 </i>
    <i name="e_0_energy">     -9.43108274 </i>
   </energy>
  </scstep>
  <scstep>
   <time name="dav">    1.72    1.76</time>
   <time name="total">    2.20    2.26</time>
   <energy>
    <i name="e_fr_energy">     -9.43107431 </i>
    <i name="e_wo_entrp">     -9.43107431 </i>
    <i name="e_0_energy">     -9.43107431 </i>
   </energy>
  </scstep>
  <scstep>
   <time name="dav">    1.20    1.23</time>
   <time name="total">    1.69    1.74</time>
   <energy>
    <i name="e_fr_energy">     -9.43107277 </i>
    <i name="e_wo_entrp">     -9.43107277 </i>
    <i name="e_0_energy">     -9.43107277 </i>
   </energy>
  </scstep>
  <scstep>
   <time name="dav">    1.07    1.11</time>
   <time name="total">    1.45    1.49</time>
   <energy>
    <i name="alphaZ">      2.21808466 </i>
    <i name="ewald">   -666.92580739 </i>
    <i name="hartreedc">    -45.68499561 </i>
    <i name="XCdc">    -84.15945128 </i>
    <i name="pawpsdc">   1470.57236238 </i>
    <i name="pawaedc">  -1355.18895848 </i>
    <i name="eentropy">     -0.00000000 </i>
    <i name="bandstr">     -0.07649451 </i>
    <i name="atom">    669.81418755 </i>
    <i name="e_fr_energy">     -9.43107269 </i>
    <i name="e_wo_entrp">     -9.43107269 </i>
    <i name="e_0_energy">     -9.43107269 </i>
   </energy>
  </scstep>
  <structure>
   <crystal>
    <varray name="basis" >
     <v>       2.25998357      -3.91440638      -0.00000000 </v>
     <v>       2.25998357       3.91440638       0.00000000 </v>
     <v>      -0.00000000       0.00000000       5.95630870 </v>
    </varray>
    <i name="volume">    105.38489961 </i>
    <varray name="rec_basis" >
     <v>       0.22124055      -0.12773329       0.00000000 </v>
     <v>       0.22124055       0.12773329      -0.00000000 </v>
     <v>      -0.00000000      -0.00000000       0.16788922 </v>
    </varray>
   </crystal>
   <varray name="positions" >
    <v>       0.26860190       0.00000000       0.16666667 </v>
    <v>       0.00000000       0.26860190       0.83333333 </v>
    <v>       0.73139810       0.73139810       0.50000000 </v>
   </varray>
  </structure>
  <varray name="forces" >
   <v>      -0.00265071       0.00459116       0.00000000 </v>
   <v>      -0.00265071      -0.00459116      -0.00000000 </v>
   <v>       0.00530142      -0.00000000       0.00000000 </v>
  </varray>
  <varray name="stress" >
   <v>      -0.40677843       0.00000000       0.00000000 </v>
   <v>       0.00000000      -0.40677843       0.00000000 </v>
   <v>      -0.00000000      -0.00000000      -0.65853746 </v>
  </varray>
  <energy>
   <i name="e_fr_energy">     -9.43107269 </i>
   <i name="e_wo_entrp">     -9.43107269 </i>
   <i name="e_0_energy">     -0.00000000 </i>
  </energy>
  <time name="totalsc">   11.83   12.11</time>
 </calculation>
 <calculation>
  <scstep>
   <time name="dav">    1.55    1.57</time>
   <time name="total">    2.01    2.05</time>
   <energy>
    <i name="alphaZ">      2.21890135 </i>
    <i name="ewald">   -666.94284769 </i>
    <i name="hartreedc">    -45.73262339 </i>
    <i name="XCdc">    -84.15563650 </i>
    <i name="pawpsdc">   1470.51399136 </i>
    <i name="pawaedc">  -1355.13054828 </i>
    <i name="eentropy">     -0.00000000 </i>
    <i name="bandstr">     -0.01650349 </i>
    <i name="atom">    669.81418755 </i>
    <i name="e_fr_energy">     -9.43107910 </i>
    <i name="e_wo_entrp">     -9.43107910 </i>
    <i name="e_0_energy">     -9.43107910 </i>
   </energy>
  </scstep>
  <scstep>
   <time name="dav">    1.75    1.78</time>
   <time name="total">    2.21    2.25</time>
   <energy>
    <i name="e_fr_energy">     -9.43108737 </i>
    <i name="e_wo_entrp">     -9.43108737 </i>
    <i name="e_0_energy">     -9.43108737 </i>
   </energy>
  </scstep>
  <scstep>
   <time name="dav">    1.52    1.56</time>
   <time name="total">    1.99    2.05</time>
   <energy>
    <i name="e_fr_energy">     -9.43108722 </i>
    <i name="e_wo_entrp">     -9.43108722 </i>
    <i name="e_0_energy">     -9.43108722 </i>
   </energy>
  </scstep>
  <scstep>
   <time name="dav">    1.11    1.14</time>
   <time name="total">    1.60    1.65</time>
   <energy>
    <i name="e_fr_energy">     -9.43108793 </i>
    <i name="e_wo_entrp">     -9.43108793 </i>
    <i name="e_0_energy">     -9.43108793 </i>
   </energy>
  </scstep>
  <scstep>
   <time name="dav">    1.33    1.64</time>
   <time name="total">    1.79    2.30</time>
   <energy>
    <i name="alphaZ">      2.21890135 </i>
    <i name="ewald">   -666.94284769 </i>
    <i name="hartreedc">    -45.71488229 </i>
    <i name="XCdc">    -84.15431217 </i>
    <i name="pawpsdc">   1472.66242160 </i>
    <i name="pawaedc">  -1357.28007896 </i>
    <i name="eentropy">     -0.00000000 </i>
    <i name="bandstr">     -0.03447742 </i>
    <i name="atom">    669.81418755 </i>
    <i name="e_fr_energy">     -9.43108805 </i>
    <i name="e_wo_entrp">     -9.43108805 </i>
    <i name="e_0_energy">     -9.43108805 </i>
   </energy>
  </scstep>
  <structure>
   <crystal>
    <varray name="basis" >
     <v>       2.25994585      -3.91434104      -0.00000000 </v>
     <v>       2.25994585       3.91434104       0.00000000 </v>
     <v>      -0.00000000       0.00000000       5.95431520 </v>
    </varray>
    <i name="volume">    105.34611198 </i>
    <varray name="rec_basis" >
     <v>       0.22124424      -0.12773542       0.00000000 </v>
     <v>       0.22124424       0.12773542      -0.00000000 </v>
     <v>      -0.00000000      -0.00000000       0.16794543 </v>
    </varray>
   </crystal>
   <varray name="positions" >
    <v>       0.26835968       0.00000000       0.16666667 </v>
    <v>       0.00000000       0.26835968       0.83333333 </v>
    <v>       0.73164032       0.73164032       0.50000000 </v>
   </varray>
  </structure>
  <varray name="forces" >
   <v>       0.00139884      -0.00242287      -0.00000000 </v>
   <v>       0.00139884       0.00242287       0.00000000 </v>
   <v>      -0.00279769       0.00000000      -0.00000000 </v>
  </varray>
  <varray name="stress" >
   <v>      -0.03546146       0.00000000      -0.00000000 </v>
   <v>       0.00000000      -0.03546146      -0.00000000 </v>
   <v>      -0.00000000      -0.00000000      -0.07468053 </v>
  </varray>
  <energy>
   <i name="e_fr_energy">     -9.43108805 </i>
   <i name="e_wo_entrp">     -9.43108805 </i>
   <i name="e_0_energy">     -0.00000000 </i>
  </energy>
  <time name="totalsc">   12.09   12.91</time>
 </calculation>
 <calculation>
  <scstep>
   <time name="dav">    1.61    1.66</time>
   <time name="total">    2.06    2.13</time>
   <energy>
    <i name="alphaZ">      2.21874986 </i>
    <i name="ewald">   -666.93971215 </i>
    <i name="hartreedc">    -45.70614760 </i>
    <i name="XCdc">    -84.15501290 </i>
    <i name="pawpsdc">   1472.66889733 </i>
    <i name="pawaedc">  -1357.28656539 </i>
    <i name="eentropy">     -0.00000000 </i>
    <i name="bandstr">     -0.04548533 </i>
    <i name="atom">    669.81418755 </i>
    <i name="e_fr_energy">     -9.43108862 </i>
    <i name="e_wo_entrp">     -9.43108862 </i>
    <i name="e_0_energy">     -9.43108862 </i>
   </energy>
  </scstep>
  <scstep>
   <time name="dav">    1.90    2.08</time>
   <time name="total">    2.47    2.77</time>
   <energy>
    <i name="e_fr_energy">     -9.43108871 </i>
    <i name="e_wo_entrp">     -9.43108871 </i>
    <i name="e_0_energy">     -9.43108871 </i>
   </energy>
  </scstep>
  <scstep>
   <time name="dav">    1.07    1.11</time>
   <time name="total">    1.56    1.62</time>
   <energy>
    <i name="e_fr_energy">     -9.43108860 </i>
    <i name="e_wo_entrp">     -9.43108860 </i>
    <i name="e_0_energy">     -9.43108860 </i>
   </energy>
  </scstep>
  <scstep>
   <time name="dav">    1.15    1.22</time>
   <time name="total">    1.65    1.74</time>
   <energy>
    <i name="e_fr_energy">     -9.43108825 </i>
    <i name="e_wo_entrp">     -9.43108825 </i>
    <i name="e_0_energy">     -9.43108825 </i>
   </energy>
  </scstep>
  <scstep>
   <time name="dav">    1.13    1.19</time>
   <time name="total">    1.50    1.60</time>
   <energy>
    <i name="alphaZ">      2.21874986 </i>
    <i name="ewald">   -666.93971215 </i>
    <i name="hartreedc">    -45.70957639 </i>
    <i name="XCdc">    -84.15524632 </i>
    <i name="pawpsdc">   1472.35619740 </i>
    <i name="pawaedc">  -1356.97375928 </i>
    <i name="eentropy">     -0.00000000 </i>
    <i name="bandstr">     -0.04192892 </i>
    <i name="atom">    669.81418755 </i>
    <i name="e_fr_energy">     -9.43108824 </i>
    <i name="e_wo_entrp">     -9.43108824 </i>
    <i name="e_0_energy">     -9.43108824 </i>
   </energy>
  </scstep>
  <structure>
   <crystal>
    <varray name="basis" >
     <v>       2.25995285      -3.91435316      -0.00000000 </v>
     <v>       2.25995285       3.91435316       0.00000000 </v>
     <v>      -0.00000000       0.00000000       5.95468487 </v>
    </varray>
    <i name="volume">    105.35330448 </i>
    <varray name="rec_basis" >
     <v>       0.22124355      -0.12773503       0.00000000 </v>
     <v>       0.22124355       0.12773503      -0.00000000 </v>
     <v>      -0.00000000      -0.00000000       0.16793500 </v>
    </varray>
   </crystal>
   <varray name="positions" >
    <v>       0.26840460       0.00000000       0.16666667 </v>
    <v>       0.00000000       0.26840460       0.83333333 </v>
    <v>       0.73159540       0.73159540       0.50000000 </v>
   </varray>
  </structure>
  <varray name="forces" >
   <v>       0.00064881      -0.00112377      -0.00000000 </v>
   <v>       0.00064881       0.00112377       0.00000000 </v>
   <v>      -0.00129761      -0.00000000      -0.00000000 </v>
  </varray>
  <varray name="stress" >
   <v>      -0.10379218       0.00000000       0.00000000 </v>
   <v>       0.00000000      -0.10379218      -0.00000000 </v>
   <v>       0.00000000      -0.00000000      -0.18090535 </v>
  </varray>
  <energy>
   <i name="e_fr_energy">     -9.43108824 </i>
   <i name="e_wo_entrp">     -9.43108824 </i>
   <i name="e_0_energy">     -0.00000000 </i>
  </energy>
  <time name="totalsc">   11.74   12.45</time>
 </calculation>
 <calculation>
  <scstep>
   <time name="dav">    1.70    1.79</time>
   <time name="total">    2.18    2.30</time>
   <energy>
    <i name="alphaZ">      2.21924071 </i>
    <i name="ewald">   -666.99967251 </i>
    <i name="hartreedc">    -45.70539755 </i>
    <i name="XCdc">    -84.15487639 </i>
    <i name="pawpsdc">   1472.35645947 </i>
    <i name="pawaedc">  -1356.97401793 </i>
    <i name="eentropy">     -0.00000000 </i>
    <i name="bandstr">      0.01298428 </i>
    <i name="atom">    669.81418755 </i>
    <i name="e_fr_energy">     -9.43109237 </i>
    <i name="e_wo_entrp">     -9.43109237 </i>
    <i name="e_0_energy">     -9.43109237 </i>
   </energy>
  </scstep>
  <scstep>
   <time name="dav">    1.85    1.94</time>
   <time name="total">    2.36    2.49</time>
   <energy>
    <i name="e_fr_energy">     -9.43109123 </i>
    <i name="e_wo_entrp">     -9.43109123 </i>
    <i name="e_0_energy">     -9.43109123 </i>
   </energy>
  </scstep>
  <scstep>
   <time name="dav">    1.08    1.13</time>
   <time name="total">    1.61    1.70</time>
   <energy>
    <i name="e_fr_energy">     -9.43109076 </i>
    <i name="e_wo_entrp">     -9.43109076 </i>
    <i name="e_0_energy">     -9.43109076 </i>
   </energy>
  </scstep>
  <scstep>
   <time name="dav">    1.12    1.18</time>
   <time name="total">    1.65    1.77</time>
   <energy>
    <i name="e_fr_energy">     -9.43109079 </i>
    <i name="e_wo_entrp">     -9.43109079 </i>
    <i name="e_0_energy">     -9.43109079 </i>
   </energy>
  </scstep>
  <scstep>
   <time name="dav">    1.11    1.17</time>
   <time name="total">    1.49    1.57</time>
   <energy>
    <i name="alphaZ">      2.21924071 </i>
    <i name="ewald">   -666.99967251 </i>
    <i name="hartreedc">    -45.68918796 </i>
    <i name="XCdc">    -84.15426424 </i>
    <i name="pawpsdc">   1472.59983545 </i>
    <i name="pawaedc">  -1357.21737310 </i>
    <i name="eentropy">     -0.00000000 </i>
    <i name="bandstr">     -0.00385665 </i>
    <i name="atom">    669.81418755 </i>
    <i name="e_fr_energy">     -9.43109076 </i>
    <i name="e_wo_entrp">     -9.43109076 </i>
    <i name="e_0_energy">     -9.43109076 </i>
   </energy>
  </scstep>
  <structure>
   <crystal>
    <varray name="basis" >
     <v>       2.25979092      -3.91407268      -0.00000000 </v>
     <v>       2.25979092       3.91407268       0.00000000 </v>
     <v>      -0.00000000       0.00000000       5.95422107 </v>
    </varray>
    <i name="volume">    105.33000270 </i>
    <varray name="rec_basis" >
     <v>       0.22125941      -0.12774418       0.00000000 </v>
     <v>       0.22125941       0.12774418      -0.00000000 </v>
     <v>      -0.00000000      -0.00000000       0.16794808 </v>
    </varray>
   </crystal>
   <varray name="positions" >
    <v>       0.26845122       0.00000000       0.16666667 </v>
    <v>       0.00000000       0.26845122       0.83333333 </v>
    <v>       0.73154878       0.73154878       0.50000000 </v>
   </varray>
  </structure>
  <varray name="forces" >
   <v>       0.00063159      -0.00109395      -0.00000000 </v>
   <v>       0.00063159       0.00109395       0.00000000 </v>
   <v>      -0.00126319      -0.00000000      -0.00000000 </v>
  </varray>
  <varray name="stress" >
   <v>      -0.07606678       0.00000000       0.00000000 </v>
   <v>       0.00000000      -0.07606678       0.00000000 </v>
   <v>      -0.00000000      -0.00000000      -0.11645506 </v>
  </varray>
  <energy>
   <i name="e_fr_energy">     -9.43109076 </i>
   <i name="e_wo_entrp">     -9.43109076 </i>
   <i name="e_0_energy">     -0.00000000 </i>
  </energy>
  <time name="totalsc">   11.68   12.28</time>
 </calculation>
 <calculation>
  <scstep>
   <time name="dav">    1.57    1.60</time>
   <time name="total">    2.05    2.09</time>
   <energy>
    <i name="alphaZ">      2.22071411 </i>
    <i name="ewald">   -667.17955496 </i>
    <i name="hartreedc">    -45.67616201 </i>
    <i name="XCdc">    -84.15313753 </i>
    <i name="pawpsdc">   1472.62886824 </i>
    <i name="pawaedc">  -1357.24647153 </i>
    <i name="eentropy">     -0.00000000 </i>
    <i name="bandstr">      0.16044723 </i>
    <i name="atom">    669.81418755 </i>
    <i name="e_fr_energy">     -9.43110890 </i>
    <i name="e_wo_entrp">     -9.43110890 </i>
    <i name="e_0_energy">     -9.43110890 </i>
   </energy>
  </scstep>
  <scstep>
   <time name="dav">    1.76    1.83</time>
   <time name="total">    2.23    2.32</time>
   <energy>
    <i name="e_fr_energy">     -9.43109935 </i>
    <i name="e_wo_entrp">     -9.43109935 </i>
    <i name="e_0_energy">     -9.43109935 </i>
   </energy>
  </scstep>
  <scstep>
   <time name="dav">    1.68    1.72</time>
   <time name="total">    2.17    2.22</time>
   <energy>
    <i name="e_fr_energy">     -9.43109421 </i>
    <i name="e_wo_entrp">     -9.43109421 </i>
    <i name="e_0_energy">     -9.43109421 </i>
   </energy>
  </scstep>
  <scstep>
   <time name="dav">    1.13    1.16</time>
   <time name="total">    1.64    1.81</time>
   <energy>
    <i name="e_fr_energy">     -9.43109356 </i>
    <i name="e_wo_entrp">     -9.43109356 </i>
    <i name="e_0_energy">     -9.43109356 </i>
   </energy>
  </scstep>
  <scstep>
   <time name="dav">    1.34    1.64</time>
   <time name="total">    1.75    2.13</time>
   <energy>
    <i name="alphaZ">      2.22071411 </i>
    <i name="ewald">   -667.17955496 </i>
    <i name="hartreedc">    -45.62643433 </i>
    <i name="XCdc">    -84.15116299 </i>
    <i name="pawpsdc">   1473.49905648 </i>
    <i name="pawaedc">  -1358.11674918 </i>
    <i name="eentropy">     -0.00000000 </i>
    <i name="bandstr">      0.10884965 </i>
    <i name="atom">    669.81418755 </i>
    <i name="e_fr_energy">     -9.43109365 </i>
    <i name="e_wo_entrp">     -9.43109365 </i>
    <i name="e_0_energy">     -9.43109365 </i>
   </energy>
  </scstep>
  <structure>
   <crystal>
    <varray name="basis" >
     <v>       2.25930512      -3.91323126      -0.00000000 </v>
     <v>       2.25930512       3.91323126       0.00000000 </v>
     <v>      -0.00000000       0.00000000       5.95282966 </v>
    </varray>
    <i name="volume">    105.26011797 </i>
    <varray name="rec_basis" >
     <v>       0.22130698      -0.12777165       0.00000000 </v>
     <v>       0.22130698       0.12777165      -0.00000000 </v>
     <v>      -0.00000000      -0.00000000       0.16798734 </v>
    </varray>
   </crystal>
   <varray name="positions" >
    <v>       0.26859109       0.00000000       0.16666667 </v>
    <v>       0.00000000       0.26859109       0.83333333 </v>
    <v>       0.73140891       0.73140891       0.50000000 </v>
   </varray>
  </structure>
  <varray name="forces" >
   <v>       0.00056939      -0.00098621      -0.00000000 </v>
   <v>       0.00056939       0.00098621       0.00000000 </v>
   <v>      -0.00113878       0.00000000      -0.00000000 </v>
  </varray>
  <varray name="stress" >
   <v>       0.04933818       0.00000000      -0.00000000 </v>
   <v>       0.00000000       0.04933818       0.00000000 </v>
   <v>      -0.00000000       0.00000000       0.11919498 </v>
  </varray>
  <energy>
   <i name="e_fr_energy">     -9.43109365 </i>
   <i name="e_wo_entrp">     -9.43109365 </i>
   <i name="e_0_energy">     -0.00000000 </i>
  </energy>
  <time name="totalsc">   12.08   12.85</time>
 </calculation>
 <calculation>
  <scstep>
   <time name="dav">    1.75    1.98</time>
   <time name="total">    2.24    2.47</time>
   <energy>
    <i name="alphaZ">      2.22050218 </i>
    <i name="ewald">   -667.15368911 </i>
    <i name="hartreedc">    -45.62831031 </i>
    <i name="XCdc">    -84.15133837 </i>
    <i name="pawpsdc">   1473.59634329 </i>
    <i name="pawaedc">  -1358.21418357 </i>
    <i name="eentropy">     -0.00000000 </i>
    <i name="bandstr">      0.08539431 </i>
    <i name="atom">    669.81418755 </i>
    <i name="e_fr_energy">     -9.43109403 </i>
    <i name="e_wo_entrp">     -9.43109403 </i>
    <i name="e_0_energy">     -9.43109403 </i>
   </energy>
  </scstep>
  <scstep>
   <time name="dav">    1.11    1.14</time>
   <time name="total">    1.63    1.70</time>
   <energy>
    <i name="e_fr_energy">     -9.43109377 </i>
    <i name="e_wo_entrp">     -9.43109377 </i>
    <i name="e_0_energy">     -9.43109377 </i>
   </energy>
  </scstep>
  <scstep>
   <time name="dav">    1.08    1.14</time>
   <time name="total">    1.60    1.72</time>
   <energy>
    <i name="e_fr_energy">     -9.43109345 </i>
    <i name="e_wo_entrp">     -9.43109345 </i>
    <i name="e_0_energy">     -9.43109345 </i>
   </energy>
  </scstep>
  <scstep>
   <time name="dav">    1.03    1.06</time>
   <time name="total">    1.56    1.66</time>
   <energy>
    <i name="e_fr_energy">     -9.43109342 </i>
    <i name="e_wo_entrp">     -9.43109342 </i>
    <i name="e_0_energy">     -9.43109342 </i>
   </energy>
  </scstep>
  <scstep>
   <time name="dav">    1.43    1.83</time>
   <time name="total">    1.83    2.32</time>
   <energy>
    <i name="alphaZ">      2.22050218 </i>
    <i name="ewald">   -667.15368911 </i>
    <i name="hartreedc">    -45.63557171 </i>
    <i name="XCdc">    -84.15171852 </i>
    <i name="pawpsdc">   1473.48787608 </i>
    <i name="pawaedc">  -1358.10568811 </i>
    <i name="eentropy">     -0.00000000 </i>
    <i name="bandstr">      0.09300823 </i>
    <i name="atom">    669.81418755 </i>
    <i name="e_fr_energy">     -9.43109342 </i>
    <i name="e_wo_entrp">     -9.43109342 </i>
    <i name="e_0_energy">     -9.43109342 </i>
   </energy>
  </scstep>
  <structure>
   <crystal>
    <varray name="basis" >
     <v>       2.25937497      -3.91335225      -0.00000000 </v>
     <v>       2.25937497       3.91335225       0.00000000 </v>
     <v>      -0.00000000       0.00000000       5.95302973 </v>
    </varray>
    <i name="volume">    105.27016465 </i>
    <varray name="rec_basis" >
     <v>       0.22130014      -0.12776770       0.00000000 </v>
     <v>       0.22130014       0.12776770      -0.00000000 </v>
     <v>      -0.00000000      -0.00000000       0.16798169 </v>
    </varray>
   </crystal>
   <varray name="positions" >
    <v>       0.26857097       0.00000000       0.16666667 </v>
    <v>       0.00000000       0.26857097       0.83333333 </v>
    <v>       0.73142903       0.73142903       0.50000000 </v>
   </varray>
  </structure>
  <varray name="forces" >
   <v>       0.00058377      -0.00101112      -0.00000000 </v>
   <v>       0.00058377       0.00101112       0.00000000 </v>
   <v>      -0.00116754      -0.00000000      -0.00000000 </v>
  </varray>
  <varray name="stress" >
   <v>       0.03449848       0.00000000      -0.00000000 </v>
   <v>       0.00000000       0.03449848      -0.00000000 </v>
   <v>       0.00000000       0.00000000       0.08774870 </v>
  </varray>
  <energy>
   <i name="e_fr_energy">     -9.43109342 </i>
   <i name="e_wo_entrp">     -9.43109342 </i>
   <i name="e_0_energy">     -0.00000000 </i>
  </energy>
  <time name="totalsc">   11.62   13.39</time>
 </calculation>
 <calculation>
  <scstep>
   <time name="dav">    1.65    1.72</time>
   <time name="total">    2.17    2.30</time>
   <energy>
    <i name="alphaZ">      2.22054736 </i>
    <i name="ewald">   -667.17188197 </i>
    <i name="hartreedc">    -45.62686098 </i>
    <i name="XCdc">    -84.15217106 </i>
    <i name="pawpsdc">   1473.47507863 </i>
    <i name="pawaedc">  -1358.09281232 </i>
    <i name="eentropy">     -0.00000000 </i>
    <i name="bandstr">      0.10281911 </i>
    <i name="atom">    669.81418755 </i>
    <i name="e_fr_energy">     -9.43109368 </i>
    <i name="e_wo_entrp">     -9.43109368 </i>
    <i name="e_0_energy">     -9.43109368 </i>
   </energy>
  </scstep>
  <scstep>
   <time name="dav">    1.85    1.95</time>
   <time name="total">    2.36    2.48</time>
   <energy>
    <i name="e_fr_energy">     -9.43109379 </i>
    <i name="e_wo_entrp">     -9.43109379 </i>
    <i name="e_0_energy">     -9.43109379 </i>
   </energy>
  </scstep>
  <scstep>
   <time name="dav">    1.14    1.22</time>
   <time name="total">    1.67    1.78</time>
   <energy>
    <i name="e_fr_energy">     -9.43109368 </i>
    <i name="e_wo_entrp">     -9.43109368 </i>
    <i name="e_0_energy">     -9.43109368 </i>
   </energy>
  </scstep>
  <scstep>
   <time name="dav">    1.18    1.28</time>
   <time name="total">    1.72    1.86</time>
   <energy>
    <i name="e_fr_energy">     -9.43109360 </i>
    <i name="e_wo_entrp">     -9.43109360 </i>
    <i name="e_0_energy">     -9.43109360 </i>
   </energy>
  </scstep>
  <scstep>
   <time name="dav">    1.16    1.22</time>
   <time name="total">    1.55    1.65</time>
   <energy>
    <i name="alphaZ">      2.22054736 </i>
    <i name="ewald">   -667.17188197 </i>
    <i name="hartreedc">    -45.62386369 </i>
    <i name="XCdc">    -84.15213643 </i>
    <i name="pawpsdc">   1473.22950254 </i>
    <i name="pawaedc">  -1357.84711264 </i>
    <i name="eentropy">     -0.00000000 </i>
    <i name="bandstr">      0.09966370 </i>
    <i name="atom">    669.81418755 </i>
    <i name="e_fr_energy">     -9.43109357 </i>
    <i name="e_wo_entrp">     -9.43109357 </i>
    <i name="e_0_energy">     -9.43109357 </i>
   </energy>
  </scstep>
  <structure>
   <crystal>
    <varray name="basis" >
     <v>       2.25932030      -3.91325756      -0.00000000 </v>
     <v>       2.25932030       3.91325756       0.00000000 </v>
     <v>      -0.00000000       0.00000000       5.95319668 </v>
    </varray>
    <i name="volume">    105.26802254 </i>
    <varray name="rec_basis" >
     <v>       0.22130550      -0.12777079       0.00000000 </v>
     <v>       0.22130550       0.12777079      -0.00000000 </v>
     <v>      -0.00000000      -0.00000000       0.16797698 </v>
    </varray>
   </crystal>
   <varray name="positions" >
    <v>       0.26862376       0.00000000       0.16666667 </v>
    <v>       0.00000000       0.26862376       0.83333333 </v>
    <v>       0.73137624       0.73137624       0.50000000 </v>
   </varray>
  </structure>
  <varray name="forces" >
   <v>      -0.00004500       0.00007794       0.00000000 </v>
   <v>      -0.00004500      -0.00007794      -0.00000000 </v>
   <v>       0.00008999      -0.00000000       0.00000000 </v>
  </varray>
  <varray name="stress" >
   <v>      -0.01345860       0.00000000      -0.00000000 </v>
   <v>       0.00000000      -0.01345860       0.00000000 </v>
   <v>       0.00000000      -0.00000000       0.01951219 </v>
  </varray>
  <energy>
   <i name="e_fr_energy">     -9.43109357 </i>
   <i name="e_wo_entrp">     -9.43109357 </i>
   <i name="e_0_energy">     -0.00000000 </i>
  </energy>
  <time name="totalsc">   11.81   12.61</time>
  <eigenvalues>
   <array>
    <dimension dim="1">band</dimension>
    <dimension dim="2">kpoint</dimension>
    <dimension dim="3">spin</dimension>
    <field>eigene</field>
    <field>occ</field>
    <set>
     <set comment="spin 1">
      <set comment="kpoint 1">
       <r>   -7.8437    1.0000 </r>
       <r>   -4.6768    1.0000 </r>
       <r>   -4.6768    1.0000 </r>
       <r>    2.5545    1.0000 </r>
       <r>    2.8180    1.0000 </r>
       <r>    2.8180    1.0000 </r>
       <r>    3.9154    1.0000 </r>
       <r>    3.9154    1.0000 </r>
       <r>    4.7261    1.0000 </r>
[...]
       <r>    3.4177    1.0000 </r>
       <r>    3.4671    1.0000 </r>
       <r>    4.0247    1.0000 </r>
       <r>    7.0705    0.0000 </r>
       <r>    7.5696    0.0000 </r>
       <r>    8.0412    0.0000 </r>
       <r>   10.4004    0.0000 </r>
       <r>   10.9266    0.0000 </r>
      </set>
      <set comment="kpoint 27">
       <r>   -7.1755    1.0000 </r>
       <r>   -6.5161    1.0000 </r>
       <r>   -3.1173    1.0000 </r>
       <r>    1.7330    1.0000 </r>
       <r>    2.6252    1.0000 </r>
       <r>    2.8885    1.0000 </r>
       <r>    3.6088    1.0000 </r>
       <r>    3.8672    1.0000 </r>
       <r>    4.2476    1.0000 </r>
       <r>    6.5239    0.0000 </r>
       <r>    6.8125    0.0000 </r>
       <r>    7.0278    0.0000 </r>
       <r>   10.0991    0.0000 </r>
       <r>   10.6583    0.0000 </r>
      </set>
      <set comment="kpoint 28">
       <r>   -6.9600    1.0000 </r>
       <r>   -6.3495    1.0000 </r>
       <r>   -3.5211    1.0000 </r>
       <r>    1.3235    1.0000 </r>
       <r>    1.9023    1.0000 </r>
       <r>    2.4165    1.0000 </r>
       <r>    3.2858    1.0000 </r>
       <r>    4.2055    1.0000 </r>
       <r>    4.6233    1.0000 </r>
       <r>    6.2986    0.0000 </r>
       <r>    7.3402    0.0000 </r>
       <r>    7.6840    0.0000 </r>
       <r>   10.0644    0.0000 </r>
       <r>   10.8623    0.0000 </r>
      </set>
      <set comment="kpoint 29">
       <r>   -6.6098    1.0000 </r>
       <r>   -6.1239    1.0000 </r>
       <r>   -4.0695    1.0000 </r>
       <r>    0.5082    1.0000 </r>
       <r>    1.3990    1.0000 </r>
       <r>    1.9042    1.0000 </r>
       <r>    3.3105    1.0000 </r>
       <r>    4.6977    1.0000 </r>
       <r>    5.2505    1.0000 </r>
       <r>    6.2243    0.0000 </r>
       <r>    6.8491    0.0000 </r>
       <r>    7.9224    0.0000 </r>
       <r>    9.9586    0.0000 </r>
       <r>   11.6905    0.0000 </r>
      </set>
      <set comment="kpoint 30">
       <r>   -6.4430    1.0000 </r>
       <r>   -5.9358    1.0000 </r>
       <r>   -4.4208    1.0000 </r>
       <r>    0.2649    1.0000 </r>
       <r>    1.1922    1.0000 </r>
       <r>    1.7038    1.0000 </r>
       <r>    3.5556    1.0000 </r>
       <r>    4.5021    1.0000 </r>
       <r>    4.9923    1.0000 </r>
       <r>    6.6246    0.0000 </r>
       <r>    7.0645    0.0000 </r>
       <r>    7.8228    0.0000 </r>
       <r>   10.1418    0.0000 </r>
       <r>   11.3804    0.0000 </r>
      </set>
      <set comment="kpoint 31">
       <r>   -6.6452    1.0000 </r>
       <r>   -6.0574    1.0000 </r>
       <r>   -4.1367    1.0000 </r>
       <r>    0.7591    1.0000 </r>
       <r>    1.3270    1.0000 </r>
       <r>    1.8517    1.0000 </r>
       <r>    3.5776    1.0000 </r>
       <r>    4.2383    1.0000 </r>
       <r>    4.5103    1.0000 </r>
       <r>    6.8454    0.0000 </r>
       <r>    7.4037    0.0000 </r>
       <r>    7.9148    0.0000 </r>
       <r>   10.4275    0.0000 </r>
       <r>   11.0557    0.0000 </r>
      </set>
      <set comment="kpoint 32">
       <r>   -6.3770    1.0000 </r>
       <r>   -5.9388    1.0000 </r>
       <r>   -4.4431    1.0000 </r>
       <r>    0.5276    1.0000 </r>
       <r>    0.7843    1.0000 </r>
       <r>    1.1656    1.0000 </r>
       <r>    4.0018    1.0000 </r>
       <r>    4.9660    1.0000 </r>
       <r>    5.3815    1.0000 </r>
       <r>    6.1777    0.0000 </r>
       <r>    6.9647    0.0000 </r>
       <r>    7.5270    0.0000 </r>
       <r>   10.8557    0.0000 </r>
       <r>   11.4926    0.0000 </r>
      </set>
     </set>
    </set>
   </array>
  </eigenvalues>
  <separator name="orbital magnetization" >
   <v name="MAGDIPOLOUT">      0.00000000      0.00000000      0.00000000</v>
  </separator>
  <dos>
   <i name="efermi">      5.61907668 </i>
   <total>
    <array>
     <dimension dim="1">gridpoints</dimension>
     <dimension dim="2">spin</dimension>
     <field>energy</field>
     <field>total</field>
     <field>integrated</field>
     <set>
      <set comment="spin 1">
       <r>    -8.8612     0.0000     0.0000 </r>
       <r>    -8.7866     0.0000     0.0000 </r>
       <r>    -8.7119     0.0000     0.0000 </r>
       <r>    -8.6373     0.0000     0.0000 </r>
       <r>    -8.5627     0.0000     0.0000 </r>
       <r>    -8.4881     0.0000     0.0000 </r>
       <r>    -8.4135     0.0000     0.0000 </r>
       <r>    -8.3389     0.0000     0.0000 </r>
       <r>    -8.2643     0.0000     0.0000 </r>
       <r>    -8.1896     0.0000     0.0000 </r>
       <r>    -8.1150     0.0000     0.0000 </r>
       <r>    -8.0404     0.0000     0.0000 </r>
       <r>    -7.9658     0.0000     0.0000 </r>
       <r>    -7.8912     0.0098     0.0007 </r>
       <r>    -7.8166     0.0768     0.0065 </r>
       <r>    -7.7419     0.1966     0.0211 </r>
       <r>    -7.6673     0.6156     0.0671 </r>
       <r>    -7.5927     0.5234     0.1061 </r>
       <r>    -7.5181     0.8753     0.1714 </r>
       <r>    -7.4435     0.5238     0.2105 </r>
       <r>    -7.3689     0.6850     0.2616 </r>
       <r>    -7.2942     1.4362     0.3688 </r>
       <r>    -7.2196     1.1757     0.4565 </r>
       <r>    -7.1450     1.3772     0.5593 </r>
       <r>    -7.0704     0.8977     0.6263 </r>
       <r>    -6.9958     1.2369     0.7186 </r>
       <r>    -6.9212     3.3559     0.9690 </r>
       <r>    -6.8465     2.2637     1.1379 </r>
       <r>    -6.7719     1.8675     1.2772 </r>
       <r>    -6.6973     1.6119     1.3975 </r>
       <r>    -6.6227     2.9261     1.6158 </r>
       <r>    -6.5481     2.3860     1.7939 </r>
       <r>    -6.4735     1.7685     1.9258 </r>
       <r>    -6.3988     1.5366     2.0405 </r>
       <r>    -6.3242     2.1243     2.1990 </r>
       <r>    -6.2496     1.0455     2.2770 </r>
       <r>    -6.1750     0.5189     2.3157 </r>
       <r>    -6.1004     1.1096     2.3985 </r>
       <r>    -6.0258     1.7280     2.5275 </r>
       <r>    -5.9511     1.6119     2.6477 </r>
       <r>    -5.8765     1.9168     2.7907 </r>
       <r>    -5.8019     0.1267     2.8002 </r>
       <r>    -5.7273     0.1569     2.8119 </r>
       <r>    -5.6527     1.1431     2.8972 </r>
       <r>    -5.5781     2.5820     3.0899 </r>
       <r>    -5.5034     3.3291     3.3383 </r>
       <r>    -5.4288     2.9812     3.5607 </r>
       <r>    -5.3542     0.7211     3.6145 </r>
       <r>    -5.2796     0.9309     3.6840 </r>
       <r>    -5.2050     0.2106     3.6997 </r>
       <r>    -5.1304     0.6024     3.7446 </r>
       <r>    -5.0557     1.1750     3.8323 </r>
       <r>    -4.9811     0.2982     3.8546 </r>
       <r>    -4.9065     0.6477     3.9029 </r>
       <r>    -4.8319     0.8050     3.9630 </r>
       <r>    -4.7573     0.5083     4.0009 </r>
       <r>    -4.6827     1.1298     4.0852 </r>
       <r>    -4.6080     3.5737     4.3518 </r>
       <r>    -4.5334     2.2825     4.5222 </r>
       <r>    -4.4588     2.3781     4.6996 </r>
       <r>    -4.3842     2.8566     4.9127 </r>
       <r>    -4.3096     1.4641     5.0220 </r>
       <r>    -4.2350     1.7630     5.1535 </r>
       <r>    -4.1603     1.2173     5.2444 </r>
       <r>    -4.0857     1.4827     5.3550 </r>
       <r>    -4.0111     1.2823     5.4507 </r>
       <r>    -3.9365     1.4487     5.5588 </r>
       <r>    -3.8619     0.2250     5.5756 </r>
       <r>    -3.7873     0.2671     5.5955 </r>
       <r>    -3.7126     1.3284     5.6946 </r>
       <r>    -3.6380     0.8691     5.7595 </r>
       <r>    -3.5634     0.5157     5.7980 </r>
       <r>    -3.4888     0.9392     5.8680 </r>
       <r>    -3.4142     0.2352     5.8856 </r>
       <r>    -3.3396     0.0016     5.8857 </r>
       <r>    -3.2649     0.0000     5.8857 </r>
       <r>    -3.1903     0.0151     5.8868 </r>
       <r>    -3.1157     0.5113     5.9250 </r>
       <r>    -3.0411     0.7356     5.9799 </r>
       <r>    -2.9665     0.0510     5.9837 </r>
       <r>    -2.8919     0.0429     5.9869 </r>
       <r>    -2.8172     0.1529     5.9983 </r>
       <r>    -2.7426     0.0227     6.0000 </r>
       <r>    -2.6680     0.0001     6.0000 </r>
       <r>    -2.5934     0.0000     6.0000 </r>
       <r>    -2.5188     0.0000     6.0000 </r>
       <r>    -2.4442     0.0000     6.0000 </r>
       <r>    -2.3695     0.0000     6.0000 </r>
       <r>    -2.2949     0.0000     6.0000 </r>
       <r>    -2.2203     0.0000     6.0000 </r>
       <r>    -2.1457     0.0000     6.0000 </r>
       <r>    -2.0711     0.0000     6.0000 </r>
       <r>    -1.9965     0.0000     6.0000 </r>
       <r>    -1.9219     0.0000     6.0000 </r>
       <r>    -1.8472     0.0000     6.0000 </r>
       <r>    -1.7726     0.0000     6.0000 </r>
       <r>    -1.6980     0.0000     6.0000 </r>
       <r>    -1.6234     0.0000     6.0000 </r>
       <r>    -1.5488     0.0000     6.0000 </r>
       <r>    -1.4742     0.0000     6.0000 </r>
       <r>    -1.3995     0.0000     6.0000 </r>
       <r>    -1.3249     0.0000     6.0000 </r>
       <r>    -1.2503     0.0000     6.0000 </r>
       <r>    -1.1757     0.0000     6.0000 </r>
       <r>    -1.1011     0.0000     6.0000 </r>
       <r>    -1.0265     0.0000     6.0000 </r>
       <r>    -0.9518     0.0000     6.0000 </r>
       <r>    -0.8772     0.0000     6.0000 </r>
       <r>    -0.8026     0.0000     6.0000 </r>
       <r>    -0.7280     0.0000     6.0000 </r>
       <r>    -0.6534     0.0000     6.0000 </r>
       <r>    -0.5788     0.0000     6.0000 </r>
       <r>    -0.5041     0.0000     6.0000 </r>
       <r>    -0.4295     0.0000     6.0000 </r>
       <r>    -0.3549     0.0000     6.0000 </r>
       <r>    -0.2803     0.0000     6.0000 </r>
       <r>    -0.2057     0.0000     6.0000 </r>
       <r>    -0.1311     0.0000     6.0000 </r>
       <r>    -0.0564     0.0000     6.0000 </r>
       <r>     0.0182     0.0000     6.0000 </r>
       <r>     0.0928     0.0028     6.0002 </r>
       <r>     0.1674     0.1993     6.0151 </r>
       <r>     0.2420     0.7586     6.0717 </r>
       <r>     0.3166     1.0158     6.1475 </r>
       <r>     0.3913     0.5595     6.1892 </r>
       <r>     0.4659     0.3257     6.2135 </r>
       <r>     0.5405     2.1435     6.3735 </r>
       <r>     0.6151     1.5562     6.4896 </r>
       <r>     0.6897     1.8948     6.6310 </r>
       <r>     0.7643     2.4556     6.8142 </r>
       <r>     0.8390     2.1774     6.9767 </r>
       <r>     0.9136     1.4493     7.0848 </r>
       <r>     0.9882     2.8135     7.2947 </r>
       <r>     1.0628     2.1544     7.4555 </r>
       <r>     1.1374     1.7642     7.5871 </r>
       <r>     1.2120     5.5060     7.9980 </r>
       <r>     1.2867     4.6083     8.3418 </r>
       <r>     1.3613     4.6395     8.6880 </r>
       <r>     1.4359     3.3638     8.9390 </r>
       <r>     1.5105     1.0841     9.0199 </r>
       <r>     1.5851     0.3205     9.0438 </r>
       <r>     1.6597     1.8940     9.1851 </r>
       <r>     1.7344     3.0508     9.4128 </r>
       <r>     1.8090     2.3226     9.5861 </r>
       <r>     1.8836     3.8421     9.8728 </r>
       <r>     1.9582     3.8504    10.1601 </r>
       <r>     2.0328     1.2289    10.2518 </r>
       <r>     2.1074     1.2668    10.3463 </r>
       <r>     2.1821     3.8167    10.6311 </r>
       <r>     2.2567     2.6147    10.8262 </r>
       <r>     2.3313     3.4101    11.0806 </r>
       <r>     2.4059     3.1414    11.3150 </r>
       <r>     2.4805     2.4060    11.4946 </r>
       <r>     2.5551     1.4605    11.6035 </r>
       <r>     2.6298     2.1653    11.7651 </r>
       <r>     2.7044     2.6306    11.9614 </r>
       <r>     2.7790     2.3122    12.1339 </r>
       <r>     2.8536     2.3594    12.3100 </r>
       <r>     2.9282     1.2984    12.4068 </r>
       <r>     3.0028     1.2197    12.4979 </r>
       <r>     3.0775     1.2853    12.5938 </r>
       <r>     3.1521     1.8625    12.7327 </r>
       <r>     3.2267     1.3302    12.8320 </r>
       <r>     3.3013     1.7267    12.9608 </r>
       <r>     3.3759     1.8460    13.0986 </r>
       <r>     3.4505     1.4232    13.2048 </r>
       <r>     3.5252     2.6120    13.3997 </r>
       <r>     3.5998     3.7542    13.6798 </r>
       <r>     3.6744     2.1891    13.8431 </r>
       <r>     3.7490     1.7489    13.9736 </r>
       <r>     3.8236     2.1240    14.1321 </r>
       <r>     3.8982     3.3911    14.3851 </r>
       <r>     3.9729     2.8214    14.5957 </r>
       <r>     4.0475     2.5178    14.7835 </r>
       <r>     4.1221     1.5933    14.9024 </r>
       <r>     4.1967     3.3311    15.1510 </r>
       <r>     4.2713     4.2534    15.4683 </r>
       <r>     4.3459     3.3715    15.7199 </r>
       <r>     4.4205     3.9792    16.0168 </r>
       <r>     4.4952     2.8151    16.2269 </r>
       <r>     4.5698     3.7554    16.5071 </r>
       <r>     4.6444     2.8183    16.7174 </r>
       <r>     4.7190     1.9193    16.8606 </r>
       <r>     4.7936     2.5891    17.0538 </r>
       <r>     4.8682     2.1691    17.2156 </r>
       <r>     4.9429     1.7362    17.3452 </r>
       <r>     5.0175     2.7994    17.5541 </r>
       <r>     5.0921     2.3890    17.7323 </r>
       <r>     5.1667     0.3153    17.7559 </r>
       <r>     5.2413     0.5364    17.7959 </r>
       <r>     5.3159     1.1802    17.8839 </r>
       <r>     5.3906     1.0272    17.9606 </r>
       <r>     5.4652     0.5165    17.9991 </r>
       <r>     5.5398     0.0118    18.0000 </r>
       <r>     5.6144     0.0000    18.0000 </r>
       <r>     5.6890     0.0000    18.0000 </r>
       <r>     5.7636     0.0000    18.0000 </r>
       <r>     5.8383     0.0000    18.0000 </r>
       <r>     5.9129     0.0032    18.0002 </r>
       <r>     5.9875     0.1021    18.0079 </r>
       <r>     6.0621     0.2006    18.0228 </r>
       <r>     6.1367     0.5584    18.0645 </r>
       <r>     6.2113     2.9361    18.2836 </r>
       <r>     6.2860     3.1171    18.5162 </r>
       <r>     6.3606     2.3871    18.6943 </r>
       <r>     6.4352     3.8913    18.9846 </r>
       <r>     6.5098     3.4640    19.2431 </r>
       <r>     6.5844     3.2046    19.4822 </r>
       <r>     6.6590     3.1717    19.7189 </r>
       <r>     6.7337     1.8333    19.8557 </r>
       <r>     6.8083     1.5975    19.9749 </r>
       <r>     6.8829     3.2926    20.2206 </r>
       <r>     6.9575     2.9903    20.4437 </r>
       <r>     7.0321     2.8942    20.6596 </r>
       <r>     7.1067     4.0045    20.9585 </r>
       <r>     7.1814     2.8549    21.1715 </r>
       <r>     7.2560     3.0796    21.4013 </r>
       <r>     7.3306     4.0015    21.6998 </r>
       <r>     7.4052     2.9391    21.9191 </r>
       <r>     7.4798     1.9022    22.0611 </r>
       <r>     7.5544     2.5979    22.2549 </r>
       <r>     7.6291     1.1266    22.3390 </r>
       <r>     7.7037     1.5854    22.4573 </r>
       <r>     7.7783     3.4789    22.7169 </r>
       <r>     7.8529     2.3782    22.8943 </r>
       <r>     7.9275     2.6725    23.0937 </r>
       <r>     8.0021     2.2326    23.2603 </r>
       <r>     8.0768     0.6195    23.3066 </r>
       <r>     8.1514     0.1174    23.3153 </r>
       <r>     8.2260     0.7598    23.3720 </r>
       <r>     8.3006     1.7732    23.5043 </r>
       <r>     8.3752     1.8139    23.6397 </r>
       <r>     8.4498     1.2383    23.7321 </r>
       <r>     8.5245     0.3902    23.7612 </r>
       <r>     8.5991     0.8855    23.8272 </r>
       <r>     8.6737     0.6327    23.8745 </r>
       <r>     8.7483     0.7579    23.9310 </r>
       <r>     8.8229     0.2656    23.9508 </r>
       <r>     8.8975     0.2082    23.9664 </r>
       <r>     8.9722     1.0220    24.0426 </r>
       <r>     9.0468     0.8512    24.1061 </r>
       <r>     9.1214     0.5434    24.1467 </r>
       <r>     9.1960     0.6486    24.1951 </r>
       <r>     9.2706     0.6726    24.2453 </r>
       <r>     9.3452     0.6951    24.2971 </r>
       <r>     9.4199     1.0975    24.3790 </r>
       <r>     9.4945     1.1747    24.4667 </r>
       <r>     9.5691     1.4688    24.5763 </r>
       <r>     9.6437     0.5723    24.6190 </r>
       <r>     9.7183     0.8649    24.6835 </r>
       <r>     9.7929     1.5382    24.7983 </r>
       <r>     9.8676     2.3198    24.9714 </r>
       <r>     9.9422     1.3621    25.0730 </r>
       <r>    10.0168     1.6133    25.1934 </r>
       <r>    10.0914     1.8600    25.3322 </r>
       <r>    10.1660     3.0906    25.5628 </r>
       <r>    10.2406     1.6508    25.6860 </r>
       <r>    10.3153     0.1783    25.6993 </r>
       <r>    10.3899     0.9472    25.7699 </r>
       <r>    10.4645     2.0676    25.9242 </r>
       <r>    10.5391     0.5798    25.9675 </r>
       <r>    10.6137     0.5944    26.0118 </r>
       <r>    10.6883     1.4156    26.1174 </r>
       <r>    10.7629     1.7557    26.2484 </r>
       <r>    10.8376     3.6322    26.5195 </r>
       <r>    10.9122     4.0607    26.8225 </r>
       <r>    10.9868     1.6184    26.9432 </r>
       <r>    11.0614     1.0778    27.0236 </r>
       <r>    11.1360     1.0355    27.1009 </r>
       <r>    11.2106     0.8479    27.1642 </r>
       <r>    11.2853     1.0949    27.2459 </r>
       <r>    11.3599     1.2145    27.3365 </r>
       <r>    11.4345     1.1679    27.4236 </r>
       <r>    11.5091     1.3485    27.5243 </r>
       <r>    11.5837     0.4630    27.5588 </r>
       <r>    11.6583     0.2437    27.5770 </r>
       <r>    11.7330     0.9625    27.6488 </r>
       <r>    11.8076     0.5788    27.6920 </r>
       <r>    11.8822     0.3730    27.7198 </r>
       <r>    11.9568     0.4589    27.7541 </r>
       <r>    12.0314     0.5901    27.7981 </r>
       <r>    12.1060     1.1572    27.8845 </r>
       <r>    12.1807     0.2342    27.9019 </r>
       <r>    12.2553     0.0020    27.9021 </r>
       <r>    12.3299     0.0894    27.9087 </r>
       <r>    12.4045     0.4663    27.9435 </r>
       <r>    12.4791     0.2451    27.9618 </r>
       <r>    12.5537     0.4528    27.9956 </r>
       <r>    12.6284     0.0587    28.0000 </r>
       <r>    12.7030     0.0002    28.0000 </r>
       <r>    12.7776     0.0000    28.0000 </r>
       <r>    12.8522     0.0000    28.0000 </r>
       <r>    12.9268     0.0000    28.0000 </r>
       <r>    13.0014     0.0000    28.0000 </r>
       <r>    13.0761     0.0000    28.0000 </r>
       <r>    13.1507     0.0000    28.0000 </r>
       <r>    13.2253     0.0000    28.0000 </r>
       <r>    13.2999     0.0000    28.0000 </r>
       <r>    13.3745     0.0000    28.0000 </r>
       <r>    13.4491     0.0000    28.0000 </r>
       <r>    13.5238     0.0000    28.0000 </r>
      </set>
     </set>
    </array>
   </total>
  </dos>
 </calculation>
 <structure name="finalpos" >
  <crystal>
   <varray name="basis" >
    <v>       2.25932030      -3.91325756      -0.00000000 </v>
    <v>       2.25932030       3.91325756       0.00000000 </v>
    <v>      -0.00000000       0.00000000       5.95319668 </v>
   </varray>
   <i name="volume">    105.26802254 </i>
   <varray name="rec_basis" >
    <v>       0.22130550      -0.12777079       0.00000000 </v>
    <v>       0.22130550       0.12777079      -0.00000000 </v>
    <v>      -0.00000000      -0.00000000       0.16797698 </v>
   </varray>
  </crystal>
  <varray name="positions" >
   <v>       0.26862376       0.00000000       0.16666667 </v>
   <v>       0.00000000       0.26862376       0.83333333 </v>
   <v>       0.73137624       0.73137624       0.50000000 </v>
  </varray>
  <varray name="selective"  type="logical" >
   <v type="logical" >  T  T  T </v>
   <v type="logical" >  T  T  T </v>
   <v type="logical" >  T  T  T </v>
  </varray>
  <nose>
   <v>      -3.00000000       0.00000000       0.00010000       0.00010000 </v>
  </nose>
 </structure>
</modeling>
