Te-a                                    
           1
     2.223465   -3.851154    0.000000
     2.223465    3.851154    0.000000
     0.000000    0.000000    5.914920
   Te
   3
Direct configuration=     1
   0.26900000  0.00000000  0.16666667
   0.00000000  0.26900000  0.83333333
   0.73100000  0.73100000  0.50000000
Te-a                                    
           1
     2.257934   -3.910856    0.000000
     2.257934    3.910856   -0.000000
     0.000000   -0.000000    6.038356
   Te
   3
Direct configuration=     2
   0.27101172  0.00000000  0.16666667
   0.00000000  0.27101172  0.83333333
   0.72898828  0.72898828  0.50000000
Te-a                                    
           1
     2.243933   -3.886606    0.000000
     2.243933    3.886606   -0.000000
     0.000000   -0.000000    5.988218
   Te
   3
Direct configuration=     3
   0.27020705  0.00000000  0.16666667
   0.00000000  0.27020705  0.83333333
   0.72979295  0.72979295  0.50000000
Te-a                                    
           1
     2.246294   -3.890695   -0.000000
     2.246294    3.890695    0.000000
     0.000000   -0.000000    5.980790
   Te
   3
Direct configuration=     4
   0.27014283  0.00000000  0.16666667
   0.00000000  0.27014283  0.83333333
   0.72985717  0.72985717  0.50000000
Te-a                                    
           1
     2.253376   -3.902962   -0.000000
     2.253376    3.902962    0.000000
     0.000000   -0.000000    5.958506
   Te
   3
Direct configuration=     5
   0.26995036  0.00000000  0.16666667
   0.00000000  0.26995036  0.83333333
   0.73004964  0.73004964  0.50000000
Te-a                                    
           1
     2.255919   -3.907366   -0.000000
     2.255919    3.907366    0.000000
     0.000000   -0.000000    5.950506
   Te
   3
Direct configuration=     6
   0.26988148  0.00000000  0.16666667
   0.00000000  0.26988148  0.83333333
   0.73011852  0.73011852  0.50000000
Te-a                                    
           1
     2.256765   -3.908832   -0.000000
     2.256765    3.908832    0.000000
    -0.000000    0.000000    5.951714
   Te
   3
Direct configuration=     7
   0.26961495  0.00000000  0.16666667
   0.00000000  0.26961495  0.83333333
   0.73038505  0.73038505  0.50000000
Te-a                                    
           1
     2.259304   -3.913229   -0.000000
     2.259304    3.913229    0.000000
    -0.000000    0.000000    5.955338
   Te
   3
Direct configuration=     8
   0.26881567  0.00000000  0.16666667
   0.00000000  0.26881567  0.83333333
   0.73118433  0.73118433  0.50000000
Te-a                                    
           1
     2.259984   -3.914406   -0.000000
     2.259984    3.914406    0.000000
    -0.000000    0.000000    5.956309
   Te
   3
Direct configuration=     9
   0.26860190  0.00000000  0.16666667
   0.00000000  0.26860190  0.83333333
   0.73139810  0.73139810  0.50000000
Te-a                                    
           1
     2.259946   -3.914341   -0.000000
     2.259946    3.914341    0.000000
    -0.000000    0.000000    5.954315
   Te
   3
Direct configuration=    10
   0.26835968  0.00000000  0.16666667
   0.00000000  0.26835968  0.83333333
   0.73164032  0.73164032  0.50000000
Te-a                                    
           1
     2.259953   -3.914353   -0.000000
     2.259953    3.914353    0.000000
    -0.000000    0.000000    5.954685
   Te
   3
Direct configuration=    11
   0.26840460  0.00000000  0.16666667
   0.00000000  0.26840460  0.83333333
   0.73159540  0.73159540  0.50000000
Te-a                                    
           1
     2.259791   -3.914073   -0.000000
     2.259791    3.914073    0.000000
    -0.000000    0.000000    5.954221
   Te
   3
Direct configuration=    12
   0.26845122  0.00000000  0.16666667
   0.00000000  0.26845122  0.83333333
   0.73154878  0.73154878  0.50000000
Te-a                                    
           1
     2.259305   -3.913231   -0.000000
     2.259305    3.913231    0.000000
    -0.000000    0.000000    5.952830
   Te
   3
Direct configuration=    13
   0.26859109  0.00000000  0.16666667
   0.00000000  0.26859109  0.83333333
   0.73140891  0.73140891  0.50000000
Te-a                                    
           1
     2.259375   -3.913352   -0.000000
     2.259375    3.913352    0.000000
    -0.000000    0.000000    5.953030
   Te
   3
Direct configuration=    14
   0.26857097  0.00000000  0.16666667
   0.00000000  0.26857097  0.83333333
   0.73142903  0.73142903  0.50000000
Te-a                                    
           1
     2.259320   -3.913258   -0.000000
     2.259320    3.913258    0.000000
    -0.000000    0.000000    5.953197
   Te
   3
Direct configuration=    15
   0.26862376  0.00000000  0.16666667
   0.00000000  0.26862376  0.83333333
   0.73137624  0.73137624  0.50000000
