   4   4   1   0
  0.5258519E+02  0.4266220E-09  0.2465189E-09  0.2000000E-08  0.5000000E-15
   1.0000000000000000E-004
  CAR 
 C                                       
      5.00000000    -15.00000000 3000     -3.36278760      1.00000000
    -15.000  0.1123E+01  0.4412E+01
    -14.993  0.1129E+01  0.4419E+01
    -14.987  0.1134E+01  0.4427E+01
    -14.980  0.1140E+01  0.4434E+01
    -14.973  0.1145E+01  0.4442E+01
    -14.967  0.1151E+01  0.4450E+01
    -14.960  0.1156E+01  0.4457E+01
    -14.953  0.1162E+01  0.4465E+01
    -14.947  0.1167E+01  0.4473E+01
    -14.940  0.1173E+01  0.4481E+01
    -14.933  0.1178E+01  0.4488E+01
    -14.927  0.1184E+01  0.4496E+01
    -14.920  0.1189E+01  0.4504E+01
    -14.913  0.1195E+01  0.4512E+01
    -14.907  0.1200E+01  0.4520E+01
    -14.900  0.1206E+01  0.4528E+01
    -14.893  0.1211E+01  0.4536E+01
    -14.887  0.1201E+01  0.4544E+01
    -14.880  0.1191E+01  0.4552E+01
    -14.873  0.1181E+01  0.4560E+01
    -14.867  0.1171E+01  0.4568E+01
    -14.860  0.1161E+01  0.4576E+01
    -14.853  0.1151E+01  0.4583E+01
    -14.847  0.1141E+01  0.4591E+01
    -14.840  0.1131E+01  0.4599E+01
    -14.833  0.1121E+01  0.4606E+01
    -14.827  0.1111E+01  0.4614E+01
    -14.820  0.1101E+01  0.4621E+01
    -14.813  0.1091E+01  0.4628E+01
    -14.807  0.1081E+01  0.4636E+01
    -14.800  0.1071E+01  0.4643E+01
    -14.793  0.1061E+01  0.4650E+01
    -14.787  0.1051E+01  0.4657E+01
    -14.780  0.1041E+01  0.4664E+01
    -14.773  0.1031E+01  0.4671E+01
    -14.767  0.1021E+01  0.4678E+01
    -14.760  0.1011E+01  0.4684E+01
    -14.753  0.1008E+01  0.4691E+01
    -14.747  0.1005E+01  0.4698E+01
    -14.740  0.1002E+01  0.4705E+01
    -14.733  0.9991E+00  0.4711E+01
    -14.727  0.9962E+00  0.4718E+01
    -14.720  0.9933E+00  0.4724E+01
    -14.713  0.9904E+00  0.4731E+01
    -14.707  0.9876E+00  0.4738E+01
    -14.700  0.9847E+00  0.4744E+01
    -14.693  0.9818E+00  0.4751E+01
    -14.687  0.9789E+00  0.4757E+01
    -14.680  0.9761E+00  0.4764E+01
    -14.673  0.9732E+00  0.4770E+01
    -14.667  0.9703E+00  0.4777E+01
    -14.660  0.9674E+00  0.4783E+01
    -14.653  0.9646E+00  0.4790E+01
    -14.647  0.9617E+00  0.4796E+01
    -14.640  0.9588E+00  0.4803E+01
    -14.633  0.9560E+00  0.4809E+01
    -14.627  0.9531E+00  0.4815E+01
    -14.620  0.9502E+00  0.4822E+01
    -14.613  0.9473E+00  0.4828E+01
    -14.607  0.9445E+00  0.4834E+01
    -14.600  0.9416E+00  0.4841E+01
    -14.593  0.9387E+00  0.4847E+01
    -14.587  0.9358E+00  0.4853E+01
    -14.580  0.9330E+00  0.4859E+01
    -14.573  0.9301E+00  0.4866E+01
    -14.567  0.9272E+00  0.4872E+01
    -14.560  0.9243E+00  0.4878E+01
    -14.553  0.9215E+00  0.4884E+01
    -14.547  0.9186E+00  0.4890E+01
    -14.540  0.9157E+00  0.4896E+01
    -14.533  0.9129E+00  0.4902E+01
    -14.527  0.9100E+00  0.4909E+01
    -14.520  0.9071E+00  0.4915E+01
    -14.513  0.9042E+00  0.4921E+01
    -14.507  0.9014E+00  0.4927E+01
    -14.500  0.8985E+00  0.4933E+01
    -14.493  0.8956E+00  0.4939E+01
    -14.486  0.8927E+00  0.4945E+01
    -14.480  0.8899E+00  0.4951E+01
    -14.473  0.8870E+00  0.4956E+01
    -14.466  0.8841E+00  0.4962E+01
    -14.460  0.8812E+00  0.4968E+01
    -14.453  0.8784E+00  0.4974E+01
    -14.446  0.8755E+00  0.4980E+01
    -14.440  0.8726E+00  0.4986E+01
    -14.433  0.8698E+00  0.4992E+01
    -14.426  0.8669E+00  0.4997E+01
    -14.420  0.8640E+00  0.5003E+01
    -14.413  0.8611E+00  0.5009E+01
    -14.406  0.8583E+00  0.5015E+01
    -14.400  0.8554E+00  0.5020E+01
    -14.393  0.8525E+00  0.5026E+01
    -14.386  0.8496E+00  0.5032E+01
    -14.380  0.8468E+00  0.5037E+01
    -14.373  0.8439E+00  0.5043E+01
    -14.366  0.8410E+00  0.5049E+01
    -14.360  0.8381E+00  0.5054E+01
    -14.353  0.8353E+00  0.5060E+01
    -14.346  0.8324E+00  0.5065E+01
    -14.340  0.8295E+00  0.5071E+01
    -14.333  0.8267E+00  0.5076E+01
    -14.326  0.8238E+00  0.5082E+01
    -14.320  0.8209E+00  0.5087E+01
    -14.313  0.8180E+00  0.5093E+01
    -14.306  0.8152E+00  0.5098E+01
    -14.300  0.8123E+00  0.5104E+01
    -14.293  0.8094E+00  0.5109E+01
    -14.286  0.8065E+00  0.5115E+01
    -14.280  0.8037E+00  0.5120E+01
    -14.273  0.8008E+00  0.5125E+01
    -14.266  0.7979E+00  0.5131E+01
    -14.260  0.7950E+00  0.5136E+01
    -14.253  0.7922E+00  0.5141E+01
    -14.246  0.7893E+00  0.5146E+01
    -14.240  0.7864E+00  0.5152E+01
    -14.233  0.7835E+00  0.5157E+01
    -14.226  0.7807E+00  0.5162E+01
    -14.220  0.7778E+00  0.5167E+01
    -14.213  0.7749E+00  0.5173E+01
    -14.206  0.7721E+00  0.5178E+01
    -14.200  0.7692E+00  0.5183E+01
    -14.193  0.7663E+00  0.5188E+01
    -14.186  0.7634E+00  0.5193E+01
    -14.180  0.7620E+00  0.5198E+01
    -14.173  0.7611E+00  0.5203E+01
    -14.166  0.7603E+00  0.5208E+01
    -14.160  0.7594E+00  0.5213E+01
    -14.153  0.7585E+00  0.5218E+01
    -14.146  0.7577E+00  0.5224E+01
    -14.140  0.7568E+00  0.5229E+01
    -14.133  0.7559E+00  0.5234E+01
    -14.126  0.7551E+00  0.5239E+01
    -14.120  0.7542E+00  0.5244E+01
    -14.113  0.7534E+00  0.5249E+01
    -14.106  0.7525E+00  0.5254E+01
    -14.100  0.7516E+00  0.5259E+01
    -14.093  0.7508E+00  0.5264E+01
    -14.086  0.7499E+00  0.5269E+01
    -14.080  0.7490E+00  0.5274E+01
    -14.073  0.7482E+00  0.5279E+01
    -14.066  0.7473E+00  0.5284E+01
    -14.060  0.7465E+00  0.5289E+01
    -14.053  0.7456E+00  0.5294E+01
    -14.046  0.7447E+00  0.5299E+01
    -14.040  0.7439E+00  0.5304E+01
    -14.033  0.7430E+00  0.5309E+01
    -14.026  0.7421E+00  0.5314E+01
    -14.020  0.7413E+00  0.5318E+01
    -14.013  0.7404E+00  0.5323E+01
    -14.006  0.7396E+00  0.5328E+01
    -14.000  0.7387E+00  0.5333E+01
    -13.993  0.7378E+00  0.5338E+01
    -13.986  0.7370E+00  0.5343E+01
    -13.980  0.7361E+00  0.5348E+01
    -13.973  0.7352E+00  0.5353E+01
    -13.966  0.7344E+00  0.5358E+01
    -13.960  0.7335E+00  0.5363E+01
    -13.953  0.7327E+00  0.5368E+01
    -13.946  0.7318E+00  0.5373E+01
    -13.940  0.7309E+00  0.5377E+01
    -13.933  0.7301E+00  0.5382E+01
    -13.926  0.7292E+00  0.5387E+01
    -13.920  0.7283E+00  0.5392E+01
    -13.913  0.7275E+00  0.5397E+01
    -13.906  0.7266E+00  0.5402E+01
    -13.900  0.7257E+00  0.5407E+01
    -13.893  0.7249E+00  0.5411E+01
    -13.886  0.7240E+00  0.5416E+01
    -13.880  0.7232E+00  0.5421E+01
    -13.873  0.7223E+00  0.5426E+01
    -13.866  0.7214E+00  0.5431E+01
    -13.860  0.7206E+00  0.5435E+01
    -13.853  0.7197E+00  0.5440E+01
    -13.846  0.7188E+00  0.5445E+01
    -13.840  0.7180E+00  0.5450E+01
    -13.833  0.7171E+00  0.5455E+01
    -13.826  0.7163E+00  0.5459E+01
    -13.820  0.7154E+00  0.5464E+01
    -13.813  0.7145E+00  0.5469E+01
    -13.806  0.7137E+00  0.5474E+01
    -13.800  0.7128E+00  0.5478E+01
    -13.793  0.7119E+00  0.5483E+01
    -13.786  0.7111E+00  0.5488E+01
    -13.780  0.7102E+00  0.5493E+01
    -13.773  0.7094E+00  0.5497E+01
    -13.766  0.7085E+00  0.5502E+01
    -13.760  0.7076E+00  0.5507E+01
    -13.753  0.7068E+00  0.5512E+01
    -13.746  0.7059E+00  0.5516E+01
    -13.740  0.7050E+00  0.5521E+01
    -13.733  0.7042E+00  0.5526E+01
    -13.726  0.7033E+00  0.5530E+01
    -13.720  0.7025E+00  0.5535E+01
    -13.713  0.7016E+00  0.5540E+01
    -13.706  0.7007E+00  0.5544E+01
    -13.700  0.6999E+00  0.5549E+01
    -13.693  0.6990E+00  0.5554E+01
    -13.686  0.6981E+00  0.5558E+01
    -13.680  0.6973E+00  0.5563E+01
    -13.673  0.6964E+00  0.5568E+01
    -13.666  0.6956E+00  0.5572E+01
    -13.660  0.6947E+00  0.5577E+01
    -13.653  0.6938E+00  0.5582E+01
    -13.646  0.6930E+00  0.5586E+01
    -13.640  0.6921E+00  0.5591E+01
    -13.633  0.6912E+00  0.5596E+01
    -13.626  0.6904E+00  0.5600E+01
    -13.620  0.6895E+00  0.5605E+01
    -13.613  0.6886E+00  0.5609E+01
    -13.606  0.6878E+00  0.5614E+01
    -13.600  0.6869E+00  0.5619E+01
    -13.593  0.6861E+00  0.5623E+01
    -13.586  0.6852E+00  0.5628E+01
    -13.580  0.6843E+00  0.5632E+01
    -13.573  0.6835E+00  0.5637E+01
    -13.566  0.6826E+00  0.5641E+01
    -13.560  0.6817E+00  0.5646E+01
    -13.553  0.6809E+00  0.5650E+01
    -13.546  0.6800E+00  0.5655E+01
    -13.540  0.6792E+00  0.5660E+01
    -13.533  0.6783E+00  0.5664E+01
    -13.526  0.6774E+00  0.5669E+01
    -13.520  0.6766E+00  0.5673E+01
    -13.513  0.6757E+00  0.5678E+01
    -13.506  0.6748E+00  0.5682E+01
    -13.499  0.6740E+00  0.5687E+01
    -13.493  0.6731E+00  0.5691E+01
    -13.486  0.6723E+00  0.5696E+01
    -13.479  0.6714E+00  0.5700E+01
    -13.473  0.6705E+00  0.5705E+01
    -13.466  0.6697E+00  0.5709E+01
    -13.459  0.6688E+00  0.5713E+01
    -13.453  0.6679E+00  0.5718E+01
    -13.446  0.6667E+00  0.5722E+01
    -13.439  0.6649E+00  0.5727E+01
    -13.433  0.6632E+00  0.5731E+01
    -13.426  0.6615E+00  0.5736E+01
    -13.419  0.6597E+00  0.5740E+01
    -13.413  0.6580E+00  0.5744E+01
    -13.406  0.6563E+00  0.5749E+01
    -13.399  0.6545E+00  0.5753E+01
    -13.393  0.6528E+00  0.5758E+01
    -13.386  0.6510E+00  0.5762E+01
    -13.379  0.6493E+00  0.5766E+01
    -13.373  0.6476E+00  0.5771E+01
    -13.366  0.6458E+00  0.5775E+01
    -13.359  0.6441E+00  0.5779E+01
    -13.353  0.6423E+00  0.5783E+01
    -13.346  0.6406E+00  0.5788E+01
    -13.339  0.6389E+00  0.5792E+01
    -13.333  0.6371E+00  0.5796E+01
    -13.326  0.6354E+00  0.5800E+01
    -13.319  0.6336E+00  0.5805E+01
    -13.313  0.6319E+00  0.5809E+01
    -13.306  0.6302E+00  0.5813E+01
    -13.299  0.6284E+00  0.5817E+01
    -13.293  0.6267E+00  0.5822E+01
    -13.286  0.6289E+00  0.5826E+01
    -13.279  0.6321E+00  0.5830E+01
    -13.273  0.6319E+00  0.5834E+01
    -13.266  0.6343E+00  0.5838E+01
    -13.259  0.6391E+00  0.5843E+01
    -13.253  0.6439E+00  0.5847E+01
    -13.246  0.6486E+00  0.5851E+01
    -13.239  0.6534E+00  0.5856E+01
    -13.233  0.6582E+00  0.5860E+01
    -13.226  0.6629E+00  0.5864E+01
    -13.219  0.6677E+00  0.5869E+01
    -13.213  0.6725E+00  0.5873E+01
    -13.206  0.6773E+00  0.5878E+01
    -13.199  0.6820E+00  0.5882E+01
    -13.193  0.6868E+00  0.5887E+01
    -13.186  0.6916E+00  0.5891E+01
    -13.179  0.6963E+00  0.5896E+01
    -13.173  0.7011E+00  0.5901E+01
    -13.166  0.7059E+00  0.5905E+01
    -13.159  0.7106E+00  0.5910E+01
    -13.153  0.7154E+00  0.5915E+01
    -13.146  0.7202E+00  0.5920E+01
    -13.139  0.7249E+00  0.5924E+01
    -13.133  0.7281E+00  0.5929E+01
    -13.126  0.7283E+00  0.5934E+01
    -13.119  0.7284E+00  0.5939E+01
    -13.113  0.7286E+00  0.5944E+01
    -13.106  0.7288E+00  0.5949E+01
    -13.099  0.7290E+00  0.5954E+01
    -13.093  0.7292E+00  0.5958E+01
    -13.086  0.7293E+00  0.5963E+01
    -13.079  0.7295E+00  0.5968E+01
    -13.073  0.7297E+00  0.5973E+01
    -13.066  0.7299E+00  0.5978E+01
    -13.059  0.7300E+00  0.5983E+01
    -13.053  0.7302E+00  0.5988E+01
    -13.046  0.7304E+00  0.5993E+01
    -13.039  0.7306E+00  0.5997E+01
    -13.033  0.7308E+00  0.6002E+01
    -13.026  0.7309E+00  0.6007E+01
    -13.019  0.7311E+00  0.6012E+01
    -13.013  0.7313E+00  0.6017E+01
    -13.006  0.7315E+00  0.6022E+01
    -12.999  0.7316E+00  0.6027E+01
    -12.993  0.7318E+00  0.6032E+01
    -12.986  0.7320E+00  0.6036E+01
    -12.979  0.7322E+00  0.6041E+01
    -12.973  0.7323E+00  0.6046E+01
    -12.966  0.7325E+00  0.6051E+01
    -12.959  0.7327E+00  0.6056E+01
    -12.953  0.7329E+00  0.6061E+01
    -12.946  0.7331E+00  0.6066E+01
    -12.939  0.7332E+00  0.6071E+01
    -12.933  0.7334E+00  0.6076E+01
    -12.926  0.7336E+00  0.6080E+01
    -12.919  0.7338E+00  0.6085E+01
    -12.913  0.7339E+00  0.6090E+01
    -12.906  0.7341E+00  0.6095E+01
    -12.899  0.7343E+00  0.6100E+01
    -12.893  0.7345E+00  0.6105E+01
    -12.886  0.7347E+00  0.6110E+01
    -12.879  0.7348E+00  0.6115E+01
    -12.873  0.7350E+00  0.6120E+01
    -12.866  0.7352E+00  0.6124E+01
    -12.859  0.7354E+00  0.6129E+01
    -12.853  0.7355E+00  0.6134E+01
    -12.846  0.7357E+00  0.6139E+01
    -12.839  0.7359E+00  0.6144E+01
    -12.833  0.7361E+00  0.6149E+01
    -12.826  0.7362E+00  0.6154E+01
    -12.819  0.7364E+00  0.6159E+01
    -12.813  0.7366E+00  0.6164E+01
    -12.806  0.7368E+00  0.6169E+01
    -12.799  0.7370E+00  0.6174E+01
    -12.793  0.7371E+00  0.6178E+01
    -12.786  0.7373E+00  0.6183E+01
    -12.779  0.7375E+00  0.6188E+01
    -12.773  0.7377E+00  0.6193E+01
    -12.766  0.7378E+00  0.6198E+01
    -12.759  0.7380E+00  0.6203E+01
    -12.753  0.7382E+00  0.6208E+01
    -12.746  0.7384E+00  0.6213E+01
    -12.739  0.7386E+00  0.6218E+01
    -12.733  0.7387E+00  0.6223E+01
    -12.726  0.7389E+00  0.6228E+01
    -12.719  0.7391E+00  0.6233E+01
    -12.713  0.7393E+00  0.6238E+01
    -12.706  0.7394E+00  0.6243E+01
    -12.699  0.7396E+00  0.6247E+01
    -12.693  0.7398E+00  0.6252E+01
    -12.686  0.7400E+00  0.6257E+01
    -12.679  0.7401E+00  0.6262E+01
    -12.673  0.7403E+00  0.6267E+01
    -12.666  0.7405E+00  0.6272E+01
    -12.659  0.7407E+00  0.6277E+01
    -12.653  0.7409E+00  0.6282E+01
    -12.646  0.7410E+00  0.6287E+01
    -12.639  0.7412E+00  0.6292E+01
    -12.633  0.7414E+00  0.6297E+01
    -12.626  0.7416E+00  0.6302E+01
    -12.619  0.7417E+00  0.6307E+01
    -12.613  0.7403E+00  0.6312E+01
    -12.606  0.7374E+00  0.6317E+01
    -12.599  0.7346E+00  0.6321E+01
    -12.593  0.7317E+00  0.6326E+01
    -12.586  0.7288E+00  0.6331E+01
    -12.579  0.7259E+00  0.6336E+01
    -12.573  0.7230E+00  0.6341E+01
    -12.566  0.7202E+00  0.6346E+01
    -12.559  0.7173E+00  0.6351E+01
    -12.553  0.7144E+00  0.6355E+01
    -12.546  0.7115E+00  0.6360E+01
    -12.539  0.7086E+00  0.6365E+01
    -12.533  0.7058E+00  0.6370E+01
    -12.526  0.7029E+00  0.6374E+01
    -12.519  0.7000E+00  0.6379E+01
    -12.513  0.6971E+00  0.6384E+01
    -12.506  0.6942E+00  0.6388E+01
    -12.499  0.6914E+00  0.6393E+01
    -12.492  0.6885E+00  0.6397E+01
    -12.486  0.6862E+00  0.6402E+01
    -12.479  0.6846E+00  0.6407E+01
    -12.472  0.6830E+00  0.6411E+01
    -12.466  0.6813E+00  0.6416E+01
    -12.459  0.6797E+00  0.6420E+01
    -12.452  0.6780E+00  0.6425E+01
    -12.446  0.6764E+00  0.6429E+01
    -12.439  0.6748E+00  0.6434E+01
    -12.432  0.6731E+00  0.6438E+01
    -12.426  0.6715E+00  0.6443E+01
    -12.419  0.6698E+00  0.6447E+01
    -12.412  0.6682E+00  0.6452E+01
    -12.406  0.6666E+00  0.6456E+01
    -12.399  0.6649E+00  0.6461E+01
    -12.392  0.6633E+00  0.6465E+01
    -12.386  0.6616E+00  0.6469E+01
    -12.379  0.6600E+00  0.6474E+01
    -12.372  0.6584E+00  0.6478E+01
    -12.366  0.6567E+00  0.6483E+01
    -12.359  0.6551E+00  0.6487E+01
    -12.352  0.6535E+00  0.6491E+01
    -12.346  0.6518E+00  0.6496E+01
    -12.339  0.6502E+00  0.6500E+01
    -12.332  0.6485E+00  0.6504E+01
    -12.326  0.6469E+00  0.6509E+01
    -12.319  0.6453E+00  0.6513E+01
    -12.312  0.6436E+00  0.6517E+01
    -12.306  0.6420E+00  0.6522E+01
    -12.299  0.6403E+00  0.6526E+01
    -12.292  0.6387E+00  0.6530E+01
    -12.286  0.6371E+00  0.6534E+01
    -12.279  0.6354E+00  0.6539E+01
    -12.272  0.6338E+00  0.6543E+01
    -12.266  0.6321E+00  0.6547E+01
    -12.259  0.6305E+00  0.6551E+01
    -12.252  0.6289E+00  0.6555E+01
    -12.246  0.6272E+00  0.6560E+01
    -12.239  0.6256E+00  0.6564E+01
    -12.232  0.6239E+00  0.6568E+01
    -12.226  0.6223E+00  0.6572E+01
    -12.219  0.6207E+00  0.6576E+01
    -12.212  0.6190E+00  0.6580E+01
    -12.206  0.6174E+00  0.6585E+01
    -12.199  0.6157E+00  0.6589E+01
    -12.192  0.6141E+00  0.6593E+01
    -12.186  0.6125E+00  0.6597E+01
    -12.179  0.6108E+00  0.6601E+01
    -12.172  0.6092E+00  0.6605E+01
    -12.166  0.6075E+00  0.6609E+01
    -12.159  0.6059E+00  0.6613E+01
    -12.152  0.6043E+00  0.6617E+01
    -12.146  0.6026E+00  0.6621E+01
    -12.139  0.6010E+00  0.6625E+01
    -12.132  0.5993E+00  0.6629E+01
    -12.126  0.5977E+00  0.6633E+01
    -12.119  0.5961E+00  0.6637E+01
    -12.112  0.5944E+00  0.6641E+01
    -12.106  0.5928E+00  0.6645E+01
    -12.099  0.5911E+00  0.6649E+01
    -12.092  0.5895E+00  0.6653E+01
    -12.086  0.5879E+00  0.6657E+01
    -12.079  0.5862E+00  0.6661E+01
    -12.072  0.5846E+00  0.6665E+01
    -12.066  0.5829E+00  0.6669E+01
    -12.059  0.5813E+00  0.6672E+01
    -12.052  0.5797E+00  0.6676E+01
    -12.046  0.5780E+00  0.6680E+01
    -12.039  0.5764E+00  0.6684E+01
    -12.032  0.5748E+00  0.6688E+01
    -12.026  0.5731E+00  0.6692E+01
    -12.019  0.5715E+00  0.6696E+01
    -12.012  0.5698E+00  0.6699E+01
    -12.006  0.5682E+00  0.6703E+01
    -11.999  0.5666E+00  0.6707E+01
    -11.992  0.5649E+00  0.6711E+01
    -11.986  0.5633E+00  0.6714E+01
    -11.979  0.5616E+00  0.6718E+01
    -11.972  0.5600E+00  0.6722E+01
    -11.966  0.5584E+00  0.6726E+01
    -11.959  0.5567E+00  0.6729E+01
    -11.952  0.5551E+00  0.6733E+01
    -11.946  0.5534E+00  0.6737E+01
    -11.939  0.5518E+00  0.6741E+01
    -11.932  0.5502E+00  0.6744E+01
    -11.926  0.5485E+00  0.6748E+01
    -11.919  0.5469E+00  0.6751E+01
    -11.912  0.5452E+00  0.6755E+01
    -11.906  0.5436E+00  0.6759E+01
    -11.899  0.5420E+00  0.6762E+01
    -11.892  0.5403E+00  0.6766E+01
    -11.886  0.5387E+00  0.6770E+01
    -11.879  0.5370E+00  0.6773E+01
    -11.872  0.5354E+00  0.6777E+01
    -11.866  0.5338E+00  0.6780E+01
    -11.859  0.5321E+00  0.6784E+01
    -11.852  0.5305E+00  0.6787E+01
    -11.846  0.5288E+00  0.6791E+01
    -11.839  0.5272E+00  0.6794E+01
    -11.832  0.5256E+00  0.6798E+01
    -11.826  0.5239E+00  0.6801E+01
    -11.819  0.5223E+00  0.6805E+01
    -11.812  0.5206E+00  0.6808E+01
    -11.806  0.5190E+00  0.6812E+01
    -11.799  0.5174E+00  0.6815E+01
    -11.792  0.5157E+00  0.6819E+01
    -11.786  0.5141E+00  0.6822E+01
    -11.779  0.5124E+00  0.6826E+01
    -11.772  0.5108E+00  0.6829E+01
    -11.766  0.5092E+00  0.6832E+01
    -11.759  0.5053E+00  0.6836E+01
    -11.752  0.4993E+00  0.6839E+01
    -11.746  0.4934E+00  0.6843E+01
    -11.739  0.4874E+00  0.6846E+01
    -11.732  0.4815E+00  0.6849E+01
    -11.726  0.4755E+00  0.6852E+01
    -11.719  0.4695E+00  0.6855E+01
    -11.712  0.4636E+00  0.6858E+01
    -11.706  0.4576E+00  0.6862E+01
    -11.699  0.4586E+00  0.6865E+01
    -11.692  0.4663E+00  0.6868E+01
    -11.686  0.4739E+00  0.6871E+01
    -11.679  0.4816E+00  0.6874E+01
    -11.672  0.4892E+00  0.6877E+01
    -11.666  0.4969E+00  0.6881E+01
    -11.659  0.5046E+00  0.6884E+01
    -11.652  0.5122E+00  0.6887E+01
    -11.646  0.5199E+00  0.6891E+01
    -11.639  0.5275E+00  0.6894E+01
    -11.632  0.5352E+00  0.6898E+01
    -11.626  0.5429E+00  0.6901E+01
    -11.619  0.5505E+00  0.6905E+01
    -11.612  0.5582E+00  0.6909E+01
    -11.606  0.5658E+00  0.6912E+01
    -11.599  0.5735E+00  0.6916E+01
    -11.592  0.5811E+00  0.6920E+01
    -11.586  0.5888E+00  0.6924E+01
    -11.579  0.5965E+00  0.6928E+01
    -11.572  0.6041E+00  0.6932E+01
    -11.566  0.6118E+00  0.6936E+01
    -11.559  0.6194E+00  0.6940E+01
    -11.552  0.6271E+00  0.6944E+01
    -11.546  0.6348E+00  0.6948E+01
    -11.539  0.6424E+00  0.6953E+01
    -11.532  0.6501E+00  0.6957E+01
    -11.526  0.6577E+00  0.6961E+01
    -11.519  0.6654E+00  0.6966E+01
    -11.512  0.6731E+00  0.6970E+01
    -11.506  0.6807E+00  0.6975E+01
    -11.499  0.6884E+00  0.6979E+01
    -11.492  0.6960E+00  0.6984E+01
    -11.485  0.7037E+00  0.6989E+01
    -11.479  0.7114E+00  0.6993E+01
    -11.472  0.7190E+00  0.6998E+01
    -11.465  0.7267E+00  0.7003E+01
    -11.459  0.7343E+00  0.7008E+01
    -11.452  0.7420E+00  0.7013E+01
    -11.445  0.7496E+00  0.7018E+01
    -11.439  0.7573E+00  0.7023E+01
    -11.432  0.7650E+00  0.7028E+01
    -11.425  0.7726E+00  0.7033E+01
    -11.419  0.7803E+00  0.7038E+01
    -11.412  0.7879E+00  0.7043E+01
    -11.405  0.7956E+00  0.7049E+01
    -11.399  0.8033E+00  0.7054E+01
    -11.392  0.8109E+00  0.7059E+01
    -11.385  0.8186E+00  0.7065E+01
    -11.379  0.8262E+00  0.7070E+01
    -11.372  0.8339E+00  0.7076E+01
    -11.365  0.8416E+00  0.7081E+01
    -11.359  0.8492E+00  0.7087E+01
    -11.352  0.8569E+00  0.7093E+01
    -11.345  0.8645E+00  0.7098E+01
    -11.339  0.8722E+00  0.7104E+01
    -11.332  0.8799E+00  0.7110E+01
    -11.325  0.8875E+00  0.7116E+01
    -11.319  0.8904E+00  0.7122E+01
    -11.312  0.8932E+00  0.7128E+01
    -11.305  0.8960E+00  0.7134E+01
    -11.299  0.8988E+00  0.7140E+01
    -11.292  0.9016E+00  0.7146E+01
    -11.285  0.9044E+00  0.7152E+01
    -11.279  0.9072E+00  0.7158E+01
    -11.272  0.9100E+00  0.7164E+01
    -11.265  0.9129E+00  0.7170E+01
    -11.259  0.9157E+00  0.7176E+01
    -11.252  0.9185E+00  0.7182E+01
    -11.245  0.9202E+00  0.7188E+01
    -11.239  0.9204E+00  0.7194E+01
    -11.232  0.9205E+00  0.7201E+01
    -11.225  0.9207E+00  0.7207E+01
    -11.219  0.9209E+00  0.7213E+01
    -11.212  0.9211E+00  0.7219E+01
    -11.205  0.9212E+00  0.7225E+01
    -11.199  0.9214E+00  0.7231E+01
    -11.192  0.9216E+00  0.7237E+01
    -11.185  0.9218E+00  0.7244E+01
    -11.179  0.9220E+00  0.7250E+01
    -11.172  0.9221E+00  0.7256E+01
    -11.165  0.9223E+00  0.7262E+01
    -11.159  0.9225E+00  0.7268E+01
    -11.152  0.9227E+00  0.7274E+01
    -11.145  0.9228E+00  0.7281E+01
    -11.139  0.9230E+00  0.7287E+01
    -11.132  0.9232E+00  0.7293E+01
    -11.125  0.9234E+00  0.7299E+01
    -11.119  0.9236E+00  0.7305E+01
    -11.112  0.9237E+00  0.7311E+01
    -11.105  0.9239E+00  0.7317E+01
    -11.099  0.9241E+00  0.7324E+01
    -11.092  0.9243E+00  0.7330E+01
    -11.085  0.9244E+00  0.7336E+01
    -11.079  0.9246E+00  0.7342E+01
    -11.072  0.9248E+00  0.7348E+01
    -11.065  0.9250E+00  0.7354E+01
    -11.059  0.9252E+00  0.7361E+01
    -11.052  0.9253E+00  0.7367E+01
    -11.045  0.9255E+00  0.7373E+01
    -11.039  0.9257E+00  0.7379E+01
    -11.032  0.9259E+00  0.7385E+01
    -11.025  0.9260E+00  0.7391E+01
    -11.019  0.9262E+00  0.7398E+01
    -11.012  0.9264E+00  0.7404E+01
    -11.005  0.9266E+00  0.7410E+01
    -10.999  0.9268E+00  0.7416E+01
    -10.992  0.9269E+00  0.7422E+01
    -10.985  0.9271E+00  0.7429E+01
    -10.979  0.9273E+00  0.7435E+01
    -10.972  0.9275E+00  0.7441E+01
    -10.965  0.9276E+00  0.7447E+01
    -10.959  0.9278E+00  0.7453E+01
    -10.952  0.9280E+00  0.7459E+01
    -10.945  0.9282E+00  0.7466E+01
    -10.939  0.9284E+00  0.7472E+01
    -10.932  0.9285E+00  0.7478E+01
    -10.925  0.9287E+00  0.7484E+01
    -10.919  0.9289E+00  0.7490E+01
    -10.912  0.9291E+00  0.7497E+01
    -10.905  0.9292E+00  0.7503E+01
    -10.899  0.9294E+00  0.7509E+01
    -10.892  0.9296E+00  0.7515E+01
    -10.885  0.9298E+00  0.7521E+01
    -10.879  0.9300E+00  0.7528E+01
    -10.872  0.9301E+00  0.7534E+01
    -10.865  0.9303E+00  0.7540E+01
    -10.859  0.9305E+00  0.7546E+01
    -10.852  0.9307E+00  0.7552E+01
    -10.845  0.9308E+00  0.7559E+01
    -10.839  0.9310E+00  0.7565E+01
    -10.832  0.9312E+00  0.7571E+01
    -10.825  0.9314E+00  0.7577E+01
    -10.819  0.9316E+00  0.7584E+01
    -10.812  0.9317E+00  0.7590E+01
    -10.805  0.9319E+00  0.7596E+01
    -10.799  0.9321E+00  0.7602E+01
    -10.792  0.9323E+00  0.7608E+01
    -10.785  0.9324E+00  0.7615E+01
    -10.779  0.9326E+00  0.7621E+01
    -10.772  0.9328E+00  0.7627E+01
    -10.765  0.9330E+00  0.7633E+01
    -10.759  0.9332E+00  0.7639E+01
    -10.752  0.9333E+00  0.7646E+01
    -10.745  0.9335E+00  0.7652E+01
    -10.739  0.9337E+00  0.7658E+01
    -10.732  0.9339E+00  0.7664E+01
    -10.725  0.9340E+00  0.7671E+01
    -10.719  0.9342E+00  0.7677E+01
    -10.712  0.9344E+00  0.7683E+01
    -10.705  0.9346E+00  0.7689E+01
    -10.699  0.9347E+00  0.7696E+01
    -10.692  0.9349E+00  0.7702E+01
    -10.685  0.9351E+00  0.7708E+01
    -10.679  0.9353E+00  0.7714E+01
    -10.672  0.9355E+00  0.7720E+01
    -10.665  0.9356E+00  0.7727E+01
    -10.659  0.9358E+00  0.7733E+01
    -10.652  0.9360E+00  0.7739E+01
    -10.645  0.9362E+00  0.7745E+01
    -10.639  0.9363E+00  0.7752E+01
    -10.632  0.9365E+00  0.7758E+01
    -10.625  0.9367E+00  0.7764E+01
    -10.619  0.9369E+00  0.7770E+01
    -10.612  0.9371E+00  0.7777E+01
    -10.605  0.9372E+00  0.7783E+01
    -10.599  0.9374E+00  0.7789E+01
    -10.592  0.9376E+00  0.7795E+01
    -10.585  0.9378E+00  0.7802E+01
    -10.579  0.9379E+00  0.7808E+01
    -10.572  0.9381E+00  0.7814E+01
    -10.565  0.9383E+00  0.7820E+01
    -10.559  0.9385E+00  0.7827E+01
    -10.552  0.9387E+00  0.7833E+01
    -10.545  0.9388E+00  0.7839E+01
    -10.539  0.9390E+00  0.7845E+01
    -10.532  0.9392E+00  0.7852E+01
    -10.525  0.9394E+00  0.7858E+01
    -10.519  0.9395E+00  0.7864E+01
    -10.512  0.9397E+00  0.7871E+01
    -10.505  0.9399E+00  0.7877E+01
    -10.498  0.9401E+00  0.7883E+01
    -10.492  0.9403E+00  0.7889E+01
    -10.485  0.9404E+00  0.7896E+01
    -10.478  0.9406E+00  0.7902E+01
    -10.472  0.9408E+00  0.7908E+01
    -10.465  0.9410E+00  0.7914E+01
    -10.458  0.9411E+00  0.7921E+01
    -10.452  0.9413E+00  0.7927E+01
    -10.445  0.9415E+00  0.7933E+01
    -10.438  0.9417E+00  0.7940E+01
    -10.432  0.9419E+00  0.7946E+01
    -10.425  0.9420E+00  0.7952E+01
    -10.418  0.9422E+00  0.7958E+01
    -10.412  0.9424E+00  0.7965E+01
    -10.405  0.9426E+00  0.7971E+01
    -10.398  0.9427E+00  0.7977E+01
    -10.392  0.9429E+00  0.7984E+01
    -10.385  0.9431E+00  0.7990E+01
    -10.378  0.9433E+00  0.7996E+01
    -10.372  0.9580E+00  0.8002E+01
    -10.365  0.9990E+00  0.8009E+01
    -10.358  0.1040E+01  0.8016E+01
    -10.352  0.1081E+01  0.8023E+01
    -10.345  0.1122E+01  0.8030E+01
    -10.338  0.1163E+01  0.8038E+01
    -10.332  0.1204E+01  0.8046E+01
    -10.325  0.1245E+01  0.8054E+01
    -10.318  0.1286E+01  0.8062E+01
    -10.312  0.1327E+01  0.8071E+01
    -10.305  0.1368E+01  0.8080E+01
    -10.298  0.1409E+01  0.8089E+01
    -10.292  0.1450E+01  0.8099E+01
    -10.285  0.1491E+01  0.8109E+01
    -10.278  0.1532E+01  0.8119E+01
    -10.272  0.1544E+01  0.8129E+01
    -10.265  0.1542E+01  0.8139E+01
    -10.258  0.1580E+01  0.8150E+01
    -10.252  0.1626E+01  0.8160E+01
    -10.245  0.1671E+01  0.8171E+01
    -10.238  0.1717E+01  0.8183E+01
    -10.232  0.1762E+01  0.8194E+01
    -10.225  0.1808E+01  0.8206E+01
    -10.218  0.1854E+01  0.8218E+01
    -10.212  0.1899E+01  0.8231E+01
    -10.205  0.1945E+01  0.8244E+01
    -10.198  0.1990E+01  0.8257E+01
    -10.192  0.2036E+01  0.8270E+01
    -10.185  0.2081E+01  0.8284E+01
    -10.178  0.2127E+01  0.8298E+01
    -10.172  0.2174E+01  0.8312E+01
    -10.165  0.2240E+01  0.8327E+01
    -10.158  0.2261E+01  0.8342E+01
    -10.152  0.2282E+01  0.8357E+01
    -10.145  0.2303E+01  0.8372E+01
    -10.138  0.2324E+01  0.8388E+01
    -10.132  0.2345E+01  0.8403E+01
    -10.125  0.2366E+01  0.8419E+01
    -10.118  0.2387E+01  0.8435E+01
    -10.112  0.2408E+01  0.8451E+01
    -10.105  0.2429E+01  0.8467E+01
    -10.098  0.2450E+01  0.8483E+01
    -10.092  0.2471E+01  0.8500E+01
    -10.085  0.2492E+01  0.8516E+01
    -10.078  0.2513E+01  0.8533E+01
    -10.072  0.2534E+01  0.8550E+01
    -10.065  0.2555E+01  0.8567E+01
    -10.058  0.2576E+01  0.8584E+01
    -10.052  0.2597E+01  0.8601E+01
    -10.045  0.2618E+01  0.8619E+01
    -10.038  0.2628E+01  0.8636E+01
    -10.032  0.2634E+01  0.8654E+01
    -10.025  0.2640E+01  0.8671E+01
    -10.018  0.2646E+01  0.8689E+01
    -10.012  0.2652E+01  0.8706E+01
    -10.005  0.2658E+01  0.8724E+01
     -9.998  0.2664E+01  0.8742E+01
     -9.992  0.2670E+01  0.8760E+01
     -9.985  0.2676E+01  0.8778E+01
     -9.978  0.2682E+01  0.8795E+01
     -9.972  0.2688E+01  0.8813E+01
     -9.965  0.2694E+01  0.8831E+01
     -9.958  0.2700E+01  0.8849E+01
     -9.952  0.2706E+01  0.8867E+01
     -9.945  0.2712E+01  0.8885E+01
     -9.938  0.2719E+01  0.8903E+01
     -9.932  0.2670E+01  0.8922E+01
     -9.925  0.2451E+01  0.8939E+01
     -9.918  0.2232E+01  0.8954E+01
     -9.912  0.2013E+01  0.8968E+01
     -9.905  0.1795E+01  0.8981E+01
     -9.898  0.1576E+01  0.8992E+01
     -9.892  0.1357E+01  0.9002E+01
     -9.885  0.1312E+01  0.9011E+01
     -9.878  0.1322E+01  0.9020E+01
     -9.872  0.1332E+01  0.9029E+01
     -9.865  0.1341E+01  0.9037E+01
     -9.858  0.1351E+01  0.9046E+01
     -9.852  0.1361E+01  0.9055E+01
     -9.845  0.1371E+01  0.9065E+01
     -9.838  0.1381E+01  0.9074E+01
     -9.832  0.1391E+01  0.9083E+01
     -9.825  0.1401E+01  0.9092E+01
     -9.818  0.1410E+01  0.9102E+01
     -9.812  0.1421E+01  0.9111E+01
     -9.805  0.1432E+01  0.9121E+01
     -9.798  0.1442E+01  0.9130E+01
     -9.792  0.1453E+01  0.9140E+01
     -9.785  0.1464E+01  0.9150E+01
     -9.778  0.1475E+01  0.9159E+01
     -9.772  0.1485E+01  0.9169E+01
     -9.765  0.1496E+01  0.9179E+01
     -9.758  0.1507E+01  0.9189E+01
     -9.752  0.1518E+01  0.9199E+01
     -9.745  0.1528E+01  0.9209E+01
     -9.738  0.1539E+01  0.9220E+01
     -9.732  0.1550E+01  0.9230E+01
     -9.725  0.1560E+01  0.9240E+01
     -9.718  0.1571E+01  0.9251E+01
     -9.712  0.1582E+01  0.9261E+01
     -9.705  0.1593E+01  0.9272E+01
     -9.698  0.1603E+01  0.9283E+01
     -9.692  0.1614E+01  0.9293E+01
     -9.685  0.1625E+01  0.9304E+01
     -9.678  0.1636E+01  0.9315E+01
     -9.672  0.1646E+01  0.9326E+01
     -9.665  0.1657E+01  0.9337E+01
     -9.658  0.1668E+01  0.9348E+01
     -9.652  0.1678E+01  0.9359E+01
     -9.645  0.1689E+01  0.9370E+01
     -9.638  0.1700E+01  0.9382E+01
     -9.632  0.1711E+01  0.9393E+01
     -9.625  0.1721E+01  0.9404E+01
     -9.618  0.1732E+01  0.9416E+01
     -9.612  0.1743E+01  0.9428E+01
     -9.605  0.1752E+01  0.9439E+01
     -9.598  0.1754E+01  0.9451E+01
     -9.592  0.1757E+01  0.9463E+01
     -9.585  0.1760E+01  0.9474E+01
     -9.578  0.1762E+01  0.9486E+01
     -9.572  0.1765E+01  0.9498E+01
     -9.565  0.1767E+01  0.9510E+01
     -9.558  0.1770E+01  0.9521E+01
     -9.552  0.1772E+01  0.9533E+01
     -9.545  0.1775E+01  0.9545E+01
     -9.538  0.1777E+01  0.9557E+01
     -9.532  0.1780E+01  0.9569E+01
     -9.525  0.1782E+01  0.9581E+01
     -9.518  0.1785E+01  0.9593E+01
     -9.512  0.1788E+01  0.9604E+01
     -9.505  0.1790E+01  0.9616E+01
     -9.498  0.1793E+01  0.9628E+01