       N       E                     dE             d eps       ncg     rms          rms(c)
DAV:   1    -0.369147033377E+02   -0.36915E+02   -0.80206E-09   856   0.293E-04    0.220E-05
DAV:   2    -0.369147033380E+02   -0.29945E-09   -0.29089E-10   992   0.608E-05    0.174E-05
DAV:   3    -0.369147033383E+02   -0.28490E-09   -0.43772E-11   752   0.275E-05    0.500E-06
DAV:   4    -0.369147033381E+02    0.20236E-09    0.16054E-12   656   0.900E-06    0.107E-06
DAV:   5    -0.369147033379E+02    0.12778E-09    0.16959E-12   544   0.387E-06
   1 F= -.36914703E+02 E0= -.36914703E+02  d E =0.000000E+00
