 vasp.5.4.4.18Apr17-6-g9f103f2a35 (build May 21 2018 15:16:00) complex           
 executed on GUN_wannier90_optcel date 2019.03.25  10:29:45
 running on    2 total cores
 distrk:  each k-point on    2 cores,    1 groups
 distr:  one band on NCORES_PER_BAND=   1 cores,    2 groups


--------------------------------------------------------------------------------------------------------


 INCAR:
 POTCAR:    PAW_PBE C 08Apr2002                   
 POTCAR:    PAW_PBE C 08Apr2002                   
  local pseudopotential read in
  partial core-charges read in
  partial kinetic energy density read in
  atomic valenz-charges read in
  non local Contribution for L=           0  read in
    real space projection operators read in
  non local Contribution for L=           0  read in
    real space projection operators read in
  non local Contribution for L=           1  read in
    real space projection operators read in
  non local Contribution for L=           1  read in
    real space projection operators read in
    PAW grid and wavefunctions read in

   number of l-projection  operators is LMAX  =           4
   number of lm-projection operators is LMMAX =           8

  PAW_PBE C 08Apr2002                   :
 energy of atom  1       EATOM= -147.1560
 kinetic energy error for atom=    0.0288 (will be added to EATOM!!)


 POSCAR: graphene d=a0                           
  positions in direct lattice
  velocities in cartesian coordinates
 exchange correlation table for  LEXCH =        8
   RHO(1)=    0.500       N(1)  =     2000
   RHO(2)=  100.500       N(2)  =     4000



--------------------------------------------------------------------------------------------------------


 ion  position               nearest neighbor table
   1  0.333  0.000  0.500-   2 1.42   3 1.42   3 1.42
   2  0.667  0.000  0.500-   1 1.42   4 1.42   4 1.42
   3  0.167  0.500  0.500-   4 1.42   1 1.42   1 1.42
   4  0.833  0.500  0.500-   3 1.42   2 1.42   2 1.42

  LATTYP: Found a simple orthorhombic cell.
 ALAT       =     2.4651886975
 B/A-ratio  =     1.7305857395
 C/A-ratio  =     8.1129692100
  
  Lattice vectors:
  
 A1 = (   0.0000000000,  -2.4651886975,   0.0000000000)
 A2 = (  -4.2662204051,   0.0000000000,   0.0000000000)
 A3 = (   0.0000000000,   0.0000000000, -20.0000000000)


Analysis of symmetry for initial positions (statically):
=====================================================================
 Subroutine PRICEL returns following result:
 
  LATTYP: Found a base centered orthorhombic cell.
 ALAT       =     2.4651886975
 B/A-ratio  =     1.7305857390
 C/A-ratio  =     8.1129692100
  
  Lattice vectors:
  
 A1 = (   2.1331102020,  -1.2325943488,   0.0000000000)
 A2 = (  -2.1331102020,  -1.2325943488,   0.0000000000)
 A3 = (   0.0000000000,   0.0000000000, -20.0000000000)
 
   2 primitive cells build up your supercell.
 

 Routine SETGRP: Setting up the symmetry group for a 
 simple orthorhombic supercell.


 Subroutine GETGRP returns: Found  8 space group operations
 (whereof  8 operations were pure point group operations)
 out of a pool of  8 trial point group operations.


The static configuration has the point symmetry D_2h.


Analysis of symmetry for dynamics (positions and initial velocities):
=====================================================================
 Subroutine PRICEL returns following result:
 
  LATTYP: Found a base centered orthorhombic cell.
 ALAT       =     2.4651886975
 B/A-ratio  =     1.7305857390
 C/A-ratio  =     8.1129692100
  
  Lattice vectors:
  
 A1 = (   2.1331102020,  -1.2325943488,   0.0000000000)
 A2 = (  -2.1331102020,  -1.2325943488,   0.0000000000)
 A3 = (   0.0000000000,   0.0000000000, -20.0000000000)
 
   2 primitive cells build up your supercell.
 

 Routine SETGRP: Setting up the symmetry group for a 
 simple orthorhombic supercell.


 Subroutine GETGRP returns: Found  8 space group operations
 (whereof  8 operations were pure point group operations)
 out of a pool of  8 trial point group operations.


The dynamic configuration has the point symmetry D_2h.


 Subroutine INISYM returns: Found  8 space group operations
 (whereof  8 operations are pure point group operations),
 and found     2 'primitive' translations



 KPOINTS: K-point                                 

Automatic generation of k-mesh.
Space group operators:
 irot       det(A)        alpha          n_x          n_y          n_z        tau_x        tau_y        tau_z
    1     1.000000     0.000000     1.000000     0.000000     0.000000     0.000000    -0.000000    -0.000000
    2    -1.000000     0.000000     1.000000     0.000000     0.000000     0.000000    -0.000000    -0.000000
    3     1.000000   180.000000     0.000000     0.000000     1.000000     0.000000    -0.000000    -0.000000
    4    -1.000000   180.000000     0.000000     0.000000     1.000000     0.000000    -0.000000    -0.000000
    5     1.000000   179.999999     1.000000     0.000000     0.000000     0.000000    -0.000000    -0.000000
    6    -1.000000   179.999999     1.000000     0.000000     0.000000     0.000000    -0.000000    -0.000000
    7     1.000000   180.000000     0.000000     1.000000     0.000000     0.000000    -0.000000    -0.000000
    8    -1.000000   180.000000     0.000000     1.000000     0.000000     0.000000    -0.000000    -0.000000
 
 Subroutine IBZKPT returns following result:
 ===========================================
 
 Found     15 irreducible k-points:
 
 Following reciprocal coordinates:
            Coordinates               Weight
  0.000000  0.000000  0.000000      1.000000
  0.250000  0.000000  0.000000      2.000000
  0.500000  0.000000  0.000000      1.000000
  0.000000  0.125000  0.000000      2.000000
  0.250000  0.125000  0.000000      4.000000
  0.500000  0.125000  0.000000      2.000000
  0.000000  0.250000  0.000000      2.000000
  0.250000  0.250000  0.000000      4.000000
  0.500000  0.250000  0.000000      2.000000
  0.000000  0.375000  0.000000      2.000000
  0.250000  0.375000  0.000000      4.000000
  0.500000  0.375000  0.000000      2.000000
  0.000000  0.500000  0.000000      1.000000
  0.250000  0.500000  0.000000      2.000000
  0.500000  0.500000  0.000000      1.000000
 
 Following cartesian coordinates:
            Coordinates               Weight
  0.000000  0.000000  0.000000      1.000000
  0.058600  0.000000  0.000000      2.000000
  0.117200  0.000000  0.000000      1.000000
  0.000000  0.050706  0.000000      2.000000
  0.058600  0.050706  0.000000      4.000000
  0.117200  0.050706  0.000000      2.000000
  0.000000  0.101412  0.000000      2.000000
  0.058600  0.101412  0.000000      4.000000
  0.117200  0.101412  0.000000      2.000000
  0.000000  0.152118  0.000000      2.000000
  0.058600  0.152118  0.000000      4.000000
  0.117200  0.152118  0.000000      2.000000
  0.000000  0.202824  0.000000      1.000000
  0.058600  0.202824  0.000000      2.000000
  0.117200  0.202824  0.000000      1.000000
 
 TETIRR: Found     96 inequivalent tetrahedra from      192
 
 Subroutine IBZKPT_HF returns following result:
 ==============================================
 
 Found     32 k-points in 1st BZ
 the following     32 k-points will be used (e.g. in the exchange kernel)
 Following reciprocal coordinates:   # in IRBZ
  0.000000  0.000000  0.000000    0.03125000   1 t-inv F
  0.250000  0.000000  0.000000    0.03125000   2 t-inv F
  0.500000  0.000000  0.000000    0.03125000   3 t-inv F
  0.000000  0.125000  0.000000    0.03125000   4 t-inv F
  0.250000  0.125000  0.000000    0.03125000   5 t-inv F
  0.500000  0.125000  0.000000    0.03125000   6 t-inv F
  0.000000  0.250000  0.000000    0.03125000   7 t-inv F
  0.250000  0.250000  0.000000    0.03125000   8 t-inv F
  0.500000  0.250000  0.000000    0.03125000   9 t-inv F
  0.000000  0.375000  0.000000    0.03125000  10 t-inv F
  0.250000  0.375000  0.000000    0.03125000  11 t-inv F
  0.500000  0.375000  0.000000    0.03125000  12 t-inv F
  0.000000  0.500000  0.000000    0.03125000  13 t-inv F
  0.250000  0.500000  0.000000    0.03125000  14 t-inv F
  0.500000  0.500000  0.000000    0.03125000  15 t-inv F
 -0.250000 -0.000000 -0.000000    0.03125000   2 t-inv F
 -0.000000 -0.125000 -0.000000    0.03125000   4 t-inv F
 -0.250000 -0.125000 -0.000000    0.03125000   5 t-inv F
  0.250000 -0.125000 -0.000000    0.03125000   5 t-inv F
 -0.250000  0.125000  0.000000    0.03125000   5 t-inv F
 -0.500000 -0.125000 -0.000000    0.03125000   6 t-inv F
 -0.000000 -0.250000 -0.000000    0.03125000   7 t-inv F
 -0.250000 -0.250000 -0.000000    0.03125000   8 t-inv F
  0.250000 -0.250000 -0.000000    0.03125000   8 t-inv F
 -0.250000  0.250000  0.000000    0.03125000   8 t-inv F
 -0.500000 -0.250000 -0.000000    0.03125000   9 t-inv F
 -0.000000 -0.375000 -0.000000    0.03125000  10 t-inv F
 -0.250000 -0.375000 -0.000000    0.03125000  11 t-inv F
  0.250000 -0.375000 -0.000000    0.03125000  11 t-inv F
 -0.250000  0.375000  0.000000    0.03125000  11 t-inv F
 -0.500000 -0.375000 -0.000000    0.03125000  12 t-inv F
 -0.250000 -0.500000 -0.000000    0.03125000  14 t-inv F


--------------------------------------------------------------------------------------------------------




 Dimension of arrays:
   k-points           NKPTS =     15   k-points in BZ     NKDIM =     15   number of bands    NBANDS=     32
   number of dos      NEDOS =   3000   number of ions     NIONS =      4
   non local maximal  LDIM  =      4   non local SUM 2l+1 LMDIM =      8
   total plane-waves  NPLWV =  62720
   max r-space proj   IRMAX =      1   max aug-charges    IRDMAX=   3718
   dimension x,y,z NGX =    28 NGY =   16 NGZ =  140
   dimension x,y,z NGXF=    56 NGYF=   32 NGZF=  280
   support grid    NGXF=    56 NGYF=   32 NGZF=  280
   ions per type =               4
   NGX,Y,Z   is equivalent  to a cutoff of  10.91, 10.79, 11.64 a.u.
   NGXF,Y,Z  is equivalent  to a cutoff of  21.82, 21.58, 23.27 a.u.

 SYSTEM =  C                                       
 POSCAR =  graphene d=a0                           

 Startparameter for this run:
   NWRITE =      1    write-flag & timer
   PREC   = a         normal or accurate (medium, high low for compatibility)
   ISTART =      1    job   : 0-new  1-cont  2-samecut
   ICHARG =      0    charge: 1-file 2-atom 10-const
   ISPIN  =      1    spin polarized calculation?
   LNONCOLLINEAR =      F non collinear calculations
   LSORBIT =      F    spin-orbit coupling
   INIWAV =      1    electr: 0-lowe 1-rand  2-diag
   LASPH  =      F    aspherical Exc in radial PAW
   METAGGA=      F    non-selfconsistent MetaGGA calc.

 Electronic Relaxation 1
   ENCUT  =  400.0 eV  29.40 Ry    5.42 a.u.   6.96  4.02 32.61*2*pi/ulx,y,z
   ENINI  =  400.0     initial cutoff
   ENAUG  =  644.9 eV  augmentation charge cutoff
   NELM   =   2000;   NELMIN=  5; NELMDL=  0     # of ELM steps 
   EDIFF  = 0.1E-05   stopping-criterion for ELM
   LREAL  =      F    real-space projection
   NLSPLINE    = F    spline interpolate recip. space projectors
   LCOMPAT=      F    compatible to vasp.4.4
   GGA_COMPAT  = T    GGA compatible to vasp.4.4-vasp.4.6
   LMAXPAW     = -100 max onsite density
   LMAXMIX     =    2 max onsite mixed and CHGCAR
   VOSKOWN=      0    Vosko Wilk Nusair interpolation
   ROPT   =    0.00000
 Ionic relaxation
   EDIFFG = -.1E-01   stopping-criterion for IOM
   NSW    =      0    number of steps for IOM
   NBLOCK =      1;   KBLOCK =      1    inner block; outer block 
   IBRION =     -1    ionic relax: 0-MD 1-quasi-New 2-CG
   NFREE  =      0    steps in history (QN), initial steepest desc. (CG)
   ISIF   =      2    stress and relaxation
   IWAVPR =     10    prediction:  0-non 1-charg 2-wave 3-comb
   ISYM   =      2    0-nonsym 1-usesym 2-fastsym
   LCORR  =      T    Harris-Foulkes like correction to forces

   POTIM  = 0.5000    time-step for ionic-motion
   TEIN   =    0.0    initial temperature
   TEBEG  =    0.0;   TEEND  =   0.0 temperature during run
   SMASS  =  -3.00    Nose mass-parameter (am)
   estimated Nose-frequenzy (Omega)   =  0.10E-29 period in steps =****** mass=  -0.416E-27a.u.
   SCALEE = 1.0000    scale energy and forces
   NPACO  =    256;   APACO  = 16.0  distance and # of slots for P.C.
   PSTRESS=    0.0 pullay stress

  Mass of Ions in am
   POMASS =  12.01
  Ionic Valenz
   ZVAL   =   4.00
  Atomic Wigner-Seitz radii
   RWIGS  =  -1.00
  virtual crystal weights 
   VCA    =   1.00
   NELECT =      16.0000    total number of electrons
   NUPDOWN=      -1.0000    fix difference up-down

 DOS related values:
   EMIN   = -15.00;   EMAX   =  5.00  energy-range for DOS
   EFERMI =   0.00
   ISMEAR =    -5;   SIGMA  =   0.20  broadening in eV -4-tet -1-fermi 0-gaus

 Electronic relaxation 2 (details)
   IALGO  =     38    algorithm
   LDIAG  =      T    sub-space diagonalisation (order eigenvalues)
   LSUBROT=      F    optimize rotation matrix (better conditioning)
   TURBO    =      0    0=normal 1=particle mesh
   IRESTART =      0    0=no restart 2=restart with 2 vectors
   NREBOOT  =      0    no. of reboots
   NMIN     =      0    reboot dimension
   EREF     =   0.00    reference energy to select bands
   IMIX   =      4    mixing-type and parameters
     AMIX     =   0.40;   BMIX     =  1.00
     AMIX_MAG =   1.60;   BMIX_MAG =  1.00
     AMIN     =   0.10
     WC   =   100.;   INIMIX=   1;  MIXPRE=   1;  MAXMIX= -45

 Intra band minimization:
   WEIMIN = 0.0000     energy-eigenvalue tresh-hold
   EBREAK =  0.78E-08  absolut break condition
   DEPER  =   0.30     relativ break condition  

   TIME   =   0.40     timestep for ELM

  volume/ion in A,a.u.               =      52.59       354.86
  Fermi-wavevector in a.u.,A,eV,Ry     =   0.693650  1.310808  6.546446  0.481150
  Thomas-Fermi vector in A             =   1.775923

 Write flags
   LWAVE        =      F    write WAVECAR
   LDOWNSAMPLE  =      F    k-point downsampling of WAVECAR
   LCHARG       =      F    write CHGCAR
   LVTOT        =      F    write LOCPOT, total local potential
   LVHAR        =      F    write LOCPOT, Hartree potential only
   LELF         =      F    write electronic localiz. function (ELF)
   LORBIT       =     11    0 simple, 1 ext, 2 COOP (PROOUT), +10 PAW based schemes


 Dipole corrections
   LMONO  =      F    monopole corrections only (constant potential shift)
   LDIPOL =      F    correct potential (dipole corrections)
   IDIPOL =      0    1-x, 2-y, 3-z, 4-all directions 
   EPSILON=  1.0000000 bulk dielectric constant

 Exchange correlation treatment:
   GGA     =    --    GGA type
   LEXCH   =     8    internal setting for exchange type
   VOSKOWN=      0    Vosko Wilk Nusair interpolation
   LHFCALC =     F    Hartree Fock is set to
   LHFONE  =     F    Hartree Fock one center treatment
   AEXX    =    0.0000 exact exchange contribution

 Linear response parameters
   LEPSILON=     F    determine dielectric tensor
   LRPA    =     F    only Hartree local field effects (RPA)
   LNABLA  =     F    use nabla operator in PAW spheres
   LVEL    =     F    velocity operator in full k-point grid
   LINTERFAST=   F  fast interpolation
   KINTER  =     0    interpolate to denser k-point grid
   CSHIFT  =0.1000    complex shift for real part using Kramers Kronig
   OMEGAMAX=  -1.0    maximum frequency
   DEG_THRESHOLD= 0.2000000E-02 threshold for treating states as degnerate
   RTIME   =   -0.100 relaxation time in fs
  (WPLASMAI=    0.000 imaginary part of plasma frequency in eV, 0.658/RTIME)
   DFIELD  = 0.0000000 0.0000000 0.0000000 field for delta impulse in time

 Orbital magnetization related:
   ORBITALMAG=     F  switch on orbital magnetization
   LCHIMAG   =     F  perturbation theory with respect to B field
   DQ        =  0.001000  dq finite difference perturbation B field
   LLRAUG    =     F  two centre corrections for induced B field



--------------------------------------------------------------------------------------------------------


 Static calculation
 charge density and potential will be updated during run
 non-spin polarized calculation
 Variant of blocked Davidson
 Davidson routine will perform the subspace rotation
 perform sub-space diagonalisation
    after iterative eigenvector-optimisation
 modified Broyden-mixing scheme, WC =      100.0
 initial mixing is a Kerker type mixing with AMIX =  0.4000 and BMIX =      1.0000
 Hartree-type preconditioning will be used
 using additional bands           24
 reciprocal scheme for non local part
 use partial core corrections
 calculate Harris-corrections to forces   (improved forces if not selfconsistent)
 use gradient corrections 
 use of overlap-Matrix (Vanderbilt PP)
 Fermi weights with tetrahedron method with Bloechl corrections


--------------------------------------------------------------------------------------------------------


  energy-cutoff  :      400.00
  volume of cell :      210.34
      direct lattice vectors                 reciprocal lattice vectors
     4.266220405  0.000000000  0.000000000     0.234399516  0.000000000  0.000000000
     0.000000000  2.465188698  0.000000000     0.000000000  0.405648461  0.000000000
     0.000000000  0.000000000 20.000000000     0.000000000  0.000000000  0.050000000

  length of vectors
     4.266220405  2.465188698 20.000000000     0.234399516  0.405648461  0.050000000



 old parameters found on file WAVECAR:
  energy-cutoff  :      400.00
  volume of cell :      210.34
      direct lattice vectors                 reciprocal lattice vectors
     4.266220405  0.000000000  0.000000000     0.234399516  0.000000000  0.000000000
     0.000000000  2.465188698  0.000000000     0.000000000  0.405648461  0.000000000
     0.000000000  0.000000000 20.000000000     0.000000000  0.000000000  0.050000000

  length of vectors


 k-points in units of 2pi/SCALE and weight: K-point                                 
   0.00000000  0.00000000  0.00000000       0.031
   0.05859988  0.00000000  0.00000000       0.062
   0.11719976  0.00000000  0.00000000       0.031
   0.00000000  0.05070606  0.00000000       0.062
   0.05859988  0.05070606  0.00000000       0.125
   0.11719976  0.05070606  0.00000000       0.062
   0.00000000  0.10141212  0.00000000       0.062
   0.05859988  0.10141212  0.00000000       0.125
   0.11719976  0.10141212  0.00000000       0.062
   0.00000000  0.15211817  0.00000000       0.062
   0.05859988  0.15211817  0.00000000       0.125
   0.11719976  0.15211817  0.00000000       0.062
   0.00000000  0.20282423  0.00000000       0.031
   0.05859988  0.20282423  0.00000000       0.062
   0.11719976  0.20282423  0.00000000       0.031

 k-points in reciprocal lattice and weights: K-point                                 
   0.00000000  0.00000000  0.00000000       0.031
   0.25000000  0.00000000  0.00000000       0.062
   0.50000000  0.00000000  0.00000000       0.031
   0.00000000  0.12500000  0.00000000       0.062
   0.25000000  0.12500000  0.00000000       0.125
   0.50000000  0.12500000  0.00000000       0.062
   0.00000000  0.25000000  0.00000000       0.062
   0.25000000  0.25000000  0.00000000       0.125
   0.50000000  0.25000000  0.00000000       0.062
   0.00000000  0.37500000  0.00000000       0.062
   0.25000000  0.37500000  0.00000000       0.125
   0.50000000  0.37500000  0.00000000       0.062
   0.00000000  0.50000000  0.00000000       0.031
   0.25000000  0.50000000  0.00000000       0.062
   0.50000000  0.50000000  0.00000000       0.031

 position of ions in fractional coordinates (direct lattice) 
   0.33334688  0.00000000  0.50000000
   0.66665312  0.00000000  0.50000000
   0.16665312  0.50000000  0.50000000
   0.83334688  0.50000000  0.50000000

 position of ions in cartesian coordinates  (Angst):
   1.42213127  0.00000000 10.00000000
   2.84408913  0.00000000 10.00000000
   0.71097893  1.23259435 10.00000000
   3.55524148  1.23259435 10.00000000



--------------------------------------------------------------------------------------------------------


 k-point  1 :   0.0000 0.0000 0.0000  plane waves:    3753
 k-point  2 :   0.2500 0.0000 0.0000  plane waves:    3758
 k-point  3 :   0.5000 0.0000 0.0000  plane waves:    3806
 k-point  4 :   0.0000 0.1250 0.0000  plane waves:    3758
 k-point  5 :   0.2500 0.1250 0.0000  plane waves:    3800
 k-point  6 :   0.5000 0.1250 0.0000  plane waves:    3820
 k-point  7 :   0.0000 0.2500 0.0000  plane waves:    3818
 k-point  8 :   0.2500 0.2500 0.0000  plane waves:    3837
 k-point  9 :   0.5000 0.2500 0.0000  plane waves:    3838
 k-point 10 :   0.0000 0.3750 0.0000  plane waves:    3844
 k-point 11 :   0.2500 0.3750 0.0000  plane waves:    3856
 k-point 12 :   0.5000 0.3750 0.0000  plane waves:    3854
 k-point 13 :   0.0000 0.5000 0.0000  plane waves:    3876
 k-point 14 :   0.2500 0.5000 0.0000  plane waves:    3870
 k-point 15 :   0.5000 0.5000 0.0000  plane waves:    3788

 maximum and minimum number of plane-waves per node :      3876     3753

 maximum number of plane-waves:      3876
 maximum index in each direction: 
   IXMAX=    6   IYMAX=    4   IZMAX=   32
   IXMIN=   -7   IYMIN=   -4   IZMIN=  -32


 serial   3D FFT for wavefunctions
 parallel 3D FFT for charge:
    minimum data exchange during FFTs selected (reduces bandwidth)


 total amount of memory used by VASP MPI-rank0    72317. kBytes
=======================================================================

   base      :      30000. kBytes
   nonl-proj :       3969. kBytes
   fftplans  :       8715. kBytes
   grid      :      14615. kBytes
   one-center:         12. kBytes
   wavefun   :      15006. kBytes

     INWAV:  cpu time    0.0912: real time    0.1348
 Broyden mixing: mesh for mixing (old mesh)
   NGX = 13   NGY =  9   NGZ = 65
  (NGX  = 56   NGY  = 32   NGZ  =280)
  gives a total of   7605 points

 charge density for first step will be calculated from the start-wavefunctions


--------------------------------------------------------------------------------------------------------


 Maximum index for augmentation-charges         1711 (set IRDMAX)


--------------------------------------------------------------------------------------------------------


 initial charge from wavefunction
 First call to EWALD:  gamma=   0.298
 Maximum number of real-space cells 4x 6x 1
 Maximum number of reciprocal cells 2x 1x 8

    FEWALD:  cpu time    0.0006: real time    0.0006


--------------------------------------- Iteration      1(   1)  ---------------------------------------


    POTLOK:  cpu time    0.1363: real time    0.1384
    SETDIJ:  cpu time    0.0025: real time    0.0030
     EDDAV:  cpu time    2.4220: real time    2.4485
 BZINTS: Fermi energy: -3.362788; 16.000000 electrons
         Band energy:-190.220029;  BLOECHL correction:  0.000000
       DOS:  cpu time    0.0049: real time    0.0049
    CHARGE:  cpu time    0.0798: real time    0.0804
    MIXING:  cpu time    0.0065: real time    0.0065
    --------------------------------------------
      LOOP:  cpu time    2.6519: real time    2.6818

 eigenvalue-minimisations  :   856
 total energy-change (2. order) :-0.3691470E+02  (-0.8020565E-09)
 number of electron      16.0000000 magnetization 
 augmentation part        0.3815604 magnetization 

 Broyden mixing:
  rms(total) = 0.21984E-05    rms(broyden)= 0.21978E-05
  rms(prec ) = 0.24201E-05
  weight for this iteration     100.00

 Free energy of the ion-electron system (eV)
  ---------------------------------------------------
  alpha Z        PSCENC =         6.24865773
  Ewald energy   TEWEN  =      2594.25031041
  -Hartree energ DENC   =     -3088.11007419
  -exchange      EXHF   =         0.00000000
  -V(xc)+E(xc)   XCENC  =        55.11387344
  PAW double counting   =      1719.67841729    -1722.38475428
  entropy T*S    EENTRO =         0.00000000
  eigenvalues    EBANDS =      -190.22002923
  atomic energy  EATOM  =       588.50889549
  Solvation  Ediel_sol  =         0.00000000
  ---------------------------------------------------
  free energy    TOTEN  =       -36.91470334 eV

  energy without entropy =      -36.91470334  energy(sigma->0) =      -36.91470334


--------------------------------------------------------------------------------------------------------




--------------------------------------- Iteration      1(   2)  ---------------------------------------


    POTLOK:  cpu time    0.1177: real time    0.1183
    SETDIJ:  cpu time    0.0020: real time    0.0020
     EDDAV:  cpu time    2.4427: real time    2.4491
 BZINTS: Fermi energy: -3.362788; 16.000000 electrons
         Band energy:-190.219966;  BLOECHL correction:  0.000000
       DOS:  cpu time    0.0047: real time    0.0047
    CHARGE:  cpu time    0.0809: real time    0.0819
    MIXING:  cpu time    0.0046: real time    0.0046
    --------------------------------------------
      LOOP:  cpu time    2.6526: real time    2.6606

 eigenvalue-minimisations  :   992
 total energy-change (2. order) :-0.2994511E-09  (-0.2908906E-10)
 number of electron      16.0000000 magnetization 
 augmentation part        0.3815605 magnetization 

 Broyden mixing:
  rms(total) = 0.17423E-05    rms(broyden)= 0.17421E-05
  rms(prec ) = 0.18922E-05
  weight for this iteration     100.00

 eigenvalues of (default mixing * dielectric matrix)
  average eigenvalue GAMMA=   2.5431
  2.5431

 Free energy of the ion-electron system (eV)
  ---------------------------------------------------
  alpha Z        PSCENC =         6.24865773
  Ewald energy   TEWEN  =      2594.25031041
  -Hartree energ DENC   =     -3088.11013981
  -exchange      EXHF   =         0.00000000
  -V(xc)+E(xc)   XCENC  =        55.11387659
  PAW double counting   =      1719.67815707    -1722.38449481
  entropy T*S    EENTRO =         0.00000000
  eigenvalues    EBANDS =      -190.21996599
  atomic energy  EATOM  =       588.50889549
  Solvation  Ediel_sol  =         0.00000000
  ---------------------------------------------------
  free energy    TOTEN  =       -36.91470334 eV

  energy without entropy =      -36.91470334  energy(sigma->0) =      -36.91470334


--------------------------------------------------------------------------------------------------------




--------------------------------------- Iteration      1(   3)  ---------------------------------------


    POTLOK:  cpu time    0.1164: real time    0.1188
    SETDIJ:  cpu time    0.0019: real time    0.0019
     EDDAV:  cpu time    2.0417: real time    2.0479
 BZINTS: Fermi energy: -3.362788; 16.000000 electrons
         Band energy:-190.219835;  BLOECHL correction:  0.000000
       DOS:  cpu time    0.0049: real time    0.0049
    CHARGE:  cpu time    0.0814: real time    0.0818
    MIXING:  cpu time    0.0047: real time    0.0047
    --------------------------------------------
      LOOP:  cpu time    2.2511: real time    2.2600

 eigenvalue-minimisations  :   752
 total energy-change (2. order) :-0.2848992E-09  (-0.4377221E-11)
 number of electron      16.0000000 magnetization 
 augmentation part        0.3815604 magnetization 

 Broyden mixing:
  rms(total) = 0.50032E-06    rms(broyden)= 0.50030E-06
  rms(prec ) = 0.53162E-06
  weight for this iteration     100.00

 eigenvalues of (default mixing * dielectric matrix)
  average eigenvalue GAMMA=   1.5565
  1.0929  2.0201

 Free energy of the ion-electron system (eV)
  ---------------------------------------------------
  alpha Z        PSCENC =         6.24865773
  Ewald energy   TEWEN  =      2594.25031041
  -Hartree energ DENC   =     -3088.11027550
  -exchange      EXHF   =         0.00000000
  -V(xc)+E(xc)   XCENC  =        55.11388295
  PAW double counting   =      1719.67700455    -1722.38334401
  entropy T*S    EENTRO =         0.00000000
  eigenvalues    EBANDS =      -190.21983496
  atomic energy  EATOM  =       588.50889549
  Solvation  Ediel_sol  =         0.00000000
  ---------------------------------------------------
  free energy    TOTEN  =       -36.91470334 eV

  energy without entropy =      -36.91470334  energy(sigma->0) =      -36.91470334


--------------------------------------------------------------------------------------------------------




--------------------------------------- Iteration      1(   4)  ---------------------------------------


    POTLOK:  cpu time    0.1125: real time    0.1129
    SETDIJ:  cpu time    0.0019: real time    0.0019
     EDDAV:  cpu time    1.8659: real time    1.8717
 BZINTS: Fermi energy: -3.362788; 16.000000 electrons
         Band energy:-190.219861;  BLOECHL correction:  0.000000
       DOS:  cpu time    0.0047: real time    0.0047
    CHARGE:  cpu time    0.0764: real time    0.0767
    MIXING:  cpu time    0.0063: real time    0.0063
    --------------------------------------------
      LOOP:  cpu time    2.0677: real time    2.0742

 eigenvalue-minimisations  :   656
 total energy-change (2. order) : 0.2023626E-09  ( 0.1605382E-12)
 number of electron      16.0000000 magnetization 
 augmentation part        0.3815605 magnetization 

 Broyden mixing:
  rms(total) = 0.10696E-06    rms(broyden)= 0.10689E-06
  rms(prec ) = 0.12089E-06
  weight for this iteration     100.00

 eigenvalues of (default mixing * dielectric matrix)
  average eigenvalue GAMMA=   1.8928
  1.0240  2.3272  2.3272

 Free energy of the ion-electron system (eV)
  ---------------------------------------------------
  alpha Z        PSCENC =         6.24865773
  Ewald energy   TEWEN  =      2594.25031041
  -Hartree energ DENC   =     -3088.11024881
  -exchange      EXHF   =         0.00000000
  -V(xc)+E(xc)   XCENC  =        55.11388163
  PAW double counting   =      1719.67721284    -1722.38355187
  entropy T*S    EENTRO =         0.00000000
  eigenvalues    EBANDS =      -190.21986075
  atomic energy  EATOM  =       588.50889549
  Solvation  Ediel_sol  =         0.00000000
  ---------------------------------------------------
  free energy    TOTEN  =       -36.91470334 eV

  energy without entropy =      -36.91470334  energy(sigma->0) =      -36.91470334


--------------------------------------------------------------------------------------------------------




--------------------------------------- Iteration      1(   5)  ---------------------------------------


    POTLOK:  cpu time    0.1147: real time    0.1157
    SETDIJ:  cpu time    0.0019: real time    0.0019
     EDDAV:  cpu time    1.6686: real time    1.6715
 BZINTS: Fermi energy: -3.362788; 16.000000 electrons
         Band energy:-190.219852;  BLOECHL correction:  0.000000
       DOS:  cpu time    0.0048: real time    0.0048
    --------------------------------------------
      LOOP:  cpu time    1.7900: real time    1.7940

 eigenvalue-minimisations  :   544
 total energy-change (2. order) : 0.1277840E-09  ( 0.1695866E-12)
 number of electron      16.0000000 magnetization 
 augmentation part        0.3815605 magnetization 

 Free energy of the ion-electron system (eV)
  ---------------------------------------------------
  alpha Z        PSCENC =         6.24865773
  Ewald energy   TEWEN  =      2594.25031041
  -Hartree energ DENC   =     -3088.11025735
  -exchange      EXHF   =         0.00000000
  -V(xc)+E(xc)   XCENC  =        55.11388187
  PAW double counting   =      1719.67713669    -1722.38347568
  entropy T*S    EENTRO =         0.00000000
  eigenvalues    EBANDS =      -190.21985249
  atomic energy  EATOM  =       588.50889549
  Solvation  Ediel_sol  =         0.00000000
  ---------------------------------------------------
  free energy    TOTEN  =       -36.91470334 eV

  energy without entropy =      -36.91470334  energy(sigma->0) =      -36.91470334


--------------------------------------------------------------------------------------------------------




 average (electrostatic) potential at core
  the test charge radii are     0.6991
  (the norm of the test charge is              1.0000)
       1 -58.1945       2 -58.1945       3 -58.1945       4 -58.1945



 E-fermi :  -3.3628     XC(G=0):  -2.1870     alpha+bet : -1.9059


 k-point     1 :       0.0000    0.0000    0.0000
  band No.  band energies     occupation 
      1     -22.2788      2.00000
      2     -17.0187      2.00000
      3     -15.9902      2.00000
      4     -10.3742      2.00000
      5      -9.1653      2.00000
      6      -5.7700      2.00000
      7      -5.7691      2.00000
      8      -5.0968      2.00000
      9      -1.0594      0.00000
     10       0.5177      0.00000
     11       1.3072      0.00000
     12       1.6302      0.00000
     13       2.5498      0.00000
     14       3.0205      0.00000
     15       4.6344      0.00000
     16       4.6843      0.00000
     17       5.3075      0.00000
     18       5.6075      0.00000
     19       5.6306      0.00000
     20       7.6399      0.00000
     21       8.3908      0.00000
     22       8.4351      0.00000
     23       8.5430      0.00000
     24       8.7353      0.00000
     25       9.2321      0.00000
     26       9.4330      0.00000
     27       9.8000      0.00000
     28       9.8617      0.00000
     29       9.8688      0.00000
     30      10.5485      0.00000
     31      10.7259      0.00000
     32      11.1292      0.00000

 k-point     2 :       0.2500    0.0000    0.0000
  band No.  band energies     occupation 
      1     -21.9092      2.00000
      2     -19.0189      2.00000
      3     -13.4491      2.00000
      4      -9.9333      2.00000
      5      -8.8022      2.00000
      6      -7.1523      2.00000
      7      -6.6561      2.00000
      8      -6.4770      2.00000
      9       1.0201      0.00000
     10       1.0621      0.00000
     11       1.8159      0.00000
     12       2.1451      0.00000
     13       3.0599      0.00000
     14       3.5295      0.00000
     15       4.7715      0.00000
     16       5.0836      0.00000
     17       5.1889      0.00000
     18       5.6354      0.00000
     19       5.8668      0.00000
     20       5.8789      0.00000
     21       6.2662      0.00000
     22       7.1206      0.00000
     23       7.1317      0.00000
     24       7.5073      0.00000
     25       7.6126      0.00000
     26       8.1369      0.00000
     27       8.9440      0.00000
     28       9.1866      0.00000
     29       9.8551      0.00000
     30      10.5263      0.00000
     31      11.8579      0.00000
     32      11.9003      0.00000

 k-point     3 :       0.5000    0.0000    0.0000
  band No.  band energies     occupation 
      1     -20.8100      2.00000
      2     -20.8100      2.00000
      3     -10.1655      2.00000
      4     -10.1655      2.00000
      5      -8.6413      2.00000
      6      -8.6413      2.00000
      7      -7.7921      2.00000
      8      -7.7921      2.00000
      9       2.5248      0.00000
     10       2.5248      0.00000
     11       3.3243      0.00000
     12       3.3243      0.00000
     13       3.6895      0.00000
     14       3.6895      0.00000
     15       4.4581      0.00000
     16       4.4581      0.00000
     17       4.6820      0.00000
     18       4.6820      0.00000
     19       5.0309      0.00000
     20       5.0309      0.00000
     21       5.3429      0.00000
     22       5.3429      0.00000
     23       6.7060      0.00000
     24       6.7060      0.00000
     25       7.3434      0.00000
     26       7.3434      0.00000
     27       9.6083      0.00000
     28       9.6083      0.00000
     29      10.4502      0.00000
     30      10.4502      0.00000
     31      10.7355      0.00000
     32      10.7355      0.00000

 k-point     4 :       0.0000    0.1250    0.0000
  band No.  band energies     occupation 
      1     -22.0019      2.00000
      2     -16.7812      2.00000
      3     -15.7603      2.00000
      4     -10.2763      2.00000
      5     -10.0433      2.00000
      6      -6.7956      2.00000
      7      -6.3608      2.00000
      8      -4.7597      2.00000
      9      -1.1663      0.00000
     10       0.8939      0.00000
     11       1.6882      0.00000
     12       2.0157      0.00000
     13       2.9318      0.00000
     14       3.4017      0.00000
     15       5.0625      0.00000
     16       5.6411      0.00000
     17       5.8525      0.00000
     18       6.1745      0.00000
     19       6.6562      0.00000
     20       7.8041      0.00000
     21       8.0113      0.00000
     22       8.7124      0.00000
     23       8.8171      0.00000
     24       8.8872      0.00000
     25       9.1251      0.00000
     26       9.8148      0.00000
     27      10.2426      0.00000
     28      10.2515      0.00000
     29      10.3483      0.00000
     30      10.7012      0.00000
     31      11.1095      0.00000
     32      11.4756      0.00000

 k-point     5 :       0.2500    0.1250    0.0000
  band No.  band energies     occupation 
      1     -21.6335      2.00000
      2     -18.7583      2.00000
      3     -13.2915      2.00000
      4      -9.8900      2.00000
      5      -9.6062      2.00000
      6      -7.9356      2.00000
      7      -7.0147      2.00000
      8      -6.3478      2.00000
      9       0.8893      0.00000
     10       1.3964      0.00000
     11       2.1961      0.00000
     12       2.5307      0.00000
     13       3.4412      0.00000
     14       3.9109      0.00000
     15       5.3864      0.00000
     16       5.5653      0.00000
     17       5.8950      0.00000
     18       6.2141      0.00000
     19       6.2396      0.00000
     20       6.3724      0.00000
     21       6.6549      0.00000
     22       6.6952      0.00000
     23       7.4774      0.00000
     24       7.7102      0.00000
     25       7.9926      0.00000
     26       8.5044      0.00000
     27       9.3233      0.00000
     28       9.4535      0.00000
     29      10.2236      0.00000
     30      11.2157      0.00000
     31      11.6552      0.00000
     32      11.6767      0.00000

 k-point     6 :       0.5000    0.1250    0.0000
  band No.  band energies     occupation 
      1     -20.5386      2.00000
      2     -20.5386      2.00000
      3     -10.2641      2.00000
      4     -10.2641      2.00000
      5      -8.7352      2.00000
      6      -8.7352      2.00000
      7      -8.3241      2.00000
      8      -8.3241      2.00000
      9       2.9019      0.00000
     10       2.9019      0.00000
     11       3.7042      0.00000
     12       3.7042      0.00000
     13       4.0667      0.00000
     14       4.0667      0.00000
     15       4.0756      0.00000
     16       4.0756      0.00000
     17       4.9661      0.00000
     18       4.9661      0.00000
     19       5.4379      0.00000
     20       5.4379      0.00000
     21       6.7070      0.00000
     22       6.7070      0.00000
     23       7.0622      0.00000
     24       7.0622      0.00000
     25       7.7301      0.00000
     26       7.7301      0.00000
     27       9.1269      0.00000
     28       9.1269      0.00000
     29       9.9349      0.00000
     30       9.9349      0.00000
     31      10.8305      0.00000
     32      10.8305      0.00000

 k-point     7 :       0.0000    0.2500    0.0000
  band No.  band energies     occupation 
      1     -21.1768      2.00000
      2     -16.0705      2.00000
      3     -15.2048      2.00000
      4     -12.4892      2.00000
      5      -9.0681      2.00000
      6      -8.9617      2.00000
      7      -7.8858      2.00000
      8      -3.7564      2.00000
      9      -1.7934      0.00000
     10       2.0224      0.00000
     11       2.8275      0.00000
     12       3.1725      0.00000
     13       4.0748      0.00000
     14       4.5459      0.00000
     15       5.5015      0.00000
     16       6.1900      0.00000
     17       6.4612      0.00000
     18       6.8772      0.00000
     19       8.1746      0.00000
     20       8.1836      0.00000
     21       9.1076      0.00000
     22       9.3854      0.00000
     23       9.5805      0.00000
     24       9.9065      0.00000
     25       9.9516      0.00000
     26      10.9587      0.00000
     27      11.3733      0.00000
     28      11.3949      0.00000
     29      11.4999      0.00000
     30      12.2594      0.00000
     31      12.3884      0.00000
     32      12.5752      0.00000

 k-point     8 :       0.2500    0.2500    0.0000
  band No.  band energies     occupation 
      1     -20.8119      2.00000
      2     -17.9867      2.00000
      3     -13.2787      2.00000
      4     -11.7003      2.00000
      5     -10.1723      2.00000
      6      -8.6442      2.00000
      7      -7.7832      2.00000
      8      -5.4819      2.00000
      9       0.0830      0.00000
     10       2.5222      0.00000
     11       3.3212      0.00000
     12       3.6869      0.00000
     13       4.4537      0.00000
     14       4.6812      0.00000
     15       5.0303      0.00000
     16       5.3619      0.00000
     17       6.4945      0.00000
     18       6.7037      0.00000
     19       7.1643      0.00000
     20       7.3410      0.00000
     21       7.8038      0.00000
     22       8.4588      0.00000
     23       9.0909      0.00000
     24       9.5522      0.00000
     25       9.6060      0.00000
     26       9.8816      0.00000
     27       9.9204      0.00000
     28      10.4476      0.00000
     29      10.7421      0.00000
     30      11.3490      0.00000
     31      11.4276      0.00000
     32      12.4568      0.00000

 k-point     9 :       0.5000    0.2500    0.0000
  band No.  band energies     occupation 
      1     -19.7307      2.00000
      2     -19.7307      2.00000
      3     -11.7624      2.00000
      4     -11.7624      2.00000
      5      -9.3987      2.00000
      6      -9.3987      2.00000
      7      -7.4040      2.00000
      8      -7.4040      2.00000
      9       2.4727      0.00000
     10       2.4727      0.00000
     11       4.0237      0.00000
     12       4.0237      0.00000
     13       4.8473      0.00000
     14       4.8473      0.00000
     15       5.2316      0.00000
     16       5.2316      0.00000
     17       6.1003      0.00000
     18       6.1003      0.00000
     19       6.5000      0.00000
     20       6.5000      0.00000
     21       6.6832      0.00000
     22       6.6832      0.00000
     23       8.1629      0.00000
     24       8.1629      0.00000
     25       8.8497      0.00000
     26       8.8497      0.00000
     27      10.5608      0.00000
     28      10.5608      0.00000
     29      10.9128      0.00000
     30      10.9128      0.00000
     31      11.9499      0.00000
     32      11.9499      0.00000

 k-point    10 :       0.0000    0.3750    0.0000
  band No.  band energies     occupation 
      1     -19.8228      2.00000
      2     -15.9038      2.00000
      3     -14.8936      2.00000
      4     -13.1350      2.00000
      5     -11.2482      2.00000
      6      -9.8178      2.00000
      7      -7.5029      2.00000
      8      -3.3676      2.00000
      9      -2.1195      0.00000
     10       2.7267      0.00000
     11       3.8968      0.00000
     12       4.7057      0.00000
     13       5.1001      0.00000
     14       5.9632      0.00000
     15       6.4508      0.00000
     16       7.7962      0.00000
     17       7.9382      0.00000
     18       8.0227      0.00000
     19       8.7412      0.00000
     20       9.1551      0.00000
     21       9.5326      0.00000
     22      10.3239      0.00000
     23      10.7291      0.00000
     24      10.7568      0.00000
     25      11.0855      0.00000
     26      11.2518      0.00000
     27      11.8200      0.00000
     28      12.2130      0.00000
     29      12.3537      0.00000
     30      12.8575      0.00000
     31      12.9924      0.00000
     32      13.1247      0.00000

 k-point    11 :       0.2500    0.3750    0.0000
  band No.  band energies     occupation 
      1     -19.4653      2.00000
      2     -16.8098      2.00000
      3     -15.1521      2.00000
      4     -12.6160      2.00000
      5     -11.3254      2.00000
      6      -8.8916      2.00000
      7      -7.1234      2.00000
      8      -4.5163      2.00000
      9      -1.1838      0.00000
     10       1.8479      0.00000
     11       4.3857      0.00000
     12       5.2389      0.00000
     13       5.3746      0.00000
     14       5.6225      0.00000
     15       6.4887      0.00000
     16       6.9734      0.00000
     17       7.7873      0.00000
     18       8.3117      0.00000
     19       8.5252      0.00000
     20       8.5543      0.00000
     21       9.2225      0.00000
     22       9.7252      0.00000
     23       9.8949      0.00000
     24      10.0634      0.00000
     25      10.8015      0.00000
     26      10.9947      0.00000
     27      11.3220      0.00000
     28      11.7542      0.00000
     29      11.7927      0.00000
     30      12.2401      0.00000
     31      12.4138      0.00000
     32      12.6512      0.00000

 k-point    12 :       0.5000    0.3750    0.0000
  band No.  band energies     occupation 
      1     -18.4162      2.00000
      2     -18.4162      2.00000
      3     -14.1845      2.00000
      4     -14.1845      2.00000
      5      -9.2500      2.00000
      6      -9.2500      2.00000
      7      -6.0465      2.00000
      8      -6.0465      2.00000
      9       0.2530      0.00000
     10       0.2530      0.00000
     11       5.1721      0.00000
     12       5.1721      0.00000
     13       5.9068      0.00000
     14       5.9068      0.00000
     15       6.7367      0.00000
     16       6.7367      0.00000
     17       7.1604      0.00000
     18       7.1604      0.00000
     19       7.9977      0.00000
     20       7.9977      0.00000
     21       8.4934      0.00000
     22       8.4934      0.00000
     23       9.9935      0.00000
     24       9.9935      0.00000
     25      10.7190      0.00000
     26      10.7190      0.00000
     27      11.4552      0.00000
     28      11.4552      0.00000
     29      12.0512      0.00000
     30      12.0512      0.00000
     31      12.9759      0.00000
     32      12.9759      0.00000

 k-point    13 :       0.0000    0.5000    0.0000
  band No.  band energies     occupation 
      1     -17.9927      2.00000
      2     -17.9927      2.00000
      3     -13.2698      2.00000
      4     -13.2698      2.00000
      5     -11.7037      2.00000
      6     -11.7037      2.00000
      7      -5.4888      2.00000
      8      -5.4888      2.00000
      9       0.0886      0.00000
     10       0.0886      0.00000
     11       6.4864      0.00000
     12       6.4864      0.00000
     13       7.1572      0.00000
     14       7.1572      0.00000
     15       7.7959      0.00000
     16       7.7959      0.00000
     17       8.4517      0.00000
     18       8.4517      0.00000
     19       9.0831      0.00000
     20       9.0831      0.00000
     21       9.5594      0.00000
     22       9.5594      0.00000
     23       9.8769      0.00000
     24       9.8769      0.00000
     25       9.9489      0.00000
     26       9.9489      0.00000
     27      11.3417      0.00000
     28      11.3417      0.00000
     29      11.4226      0.00000
     30      11.4226      0.00000
     31      13.9767      0.00000
     32      13.9767      0.00000

 k-point    14 :       0.2500    0.5000    0.0000
  band No.  band energies     occupation 
      1     -17.6650      2.00000
      2     -17.6650      2.00000
      3     -14.7594      2.00000
      4     -14.7594      2.00000
      5     -10.1698      2.00000
      6     -10.1698      2.00000
      7      -5.3144      2.00000
      8      -5.3144      2.00000
      9      -0.4987      0.00000
     10      -0.4987      0.00000
     11       6.2464      0.00000
     12       6.2464      0.00000
     13       6.9991      0.00000
     14       6.9991      0.00000
     15       7.7699      0.00000
     16       7.7699      0.00000
     17       8.3122      0.00000
     18       8.3122      0.00000
     19       9.0453      0.00000
     20       9.0453      0.00000
     21       9.6211      0.00000
     22       9.6211      0.00000
     23      10.5709      0.00000
     24      10.5709      0.00000
     25      10.6603      0.00000
     26      10.6603      0.00000
     27      11.5916      0.00000
     28      11.5916      0.00000
     29      11.8222      0.00000
     30      11.8222      0.00000
     31      12.4019      0.00000
     32      12.4019      0.00000

 k-point    15 :       0.5000    0.5000    0.0000
  band No.  band energies     occupation 
      1     -17.0320      2.00000
      2     -17.0320      2.00000
      3     -15.9873      2.00000
      4     -15.9873      2.00000
      5      -9.1525      2.00000
      6      -9.1525      2.00000
      7      -5.1091      2.00000
      8      -5.1091      2.00000
      9      -1.0564      0.00000
     10      -1.0564      0.00000
     11       4.6650      0.00000
     12       4.6650      0.00000
     13       8.3796      0.00000
     14       8.3796      0.00000
     15       8.5340      0.00000
     16       8.5340      0.00000
     17       9.2256      0.00000
     18       9.2256      0.00000
     19       9.4225      0.00000
     20       9.4225      0.00000
     21       9.8510      0.00000
     22       9.8510      0.00000
     23       9.8586      0.00000
     24       9.8586      0.00000
     25      10.5404      0.00000
     26      10.5404      0.00000
     27      10.7151      0.00000
     28      10.7151      0.00000
     29      11.1184      0.00000
     30      11.1184      0.00000
     31      11.1534      0.00000
     32      11.1534      0.00000


--------------------------------------------------------------------------------------------------------


 soft charge-density along one line, spin component           1
         0         1         2         3         4         5         6         7         8         9
 total charge-density along one line

 pseudopotential strength for first ion, spin component:           1
 10.217  13.587  -0.000  -0.000  -0.000   0.000   0.000   0.000
 13.587  18.068  -0.000  -0.000  -0.000   0.000   0.000   0.000
 -0.000  -0.000  -4.349  -0.000  -0.000   8.506   0.000   0.000
 -0.000  -0.000  -0.000  -4.341  -0.000   0.000   8.497   0.000
 -0.000  -0.000  -0.000  -0.000  -4.349   0.000   0.000   8.506
  0.000   0.000   8.506   0.000   0.000 -18.775  -0.000  -0.000
  0.000   0.000   0.000   8.497   0.000  -0.000 -18.766  -0.000
  0.000   0.000   0.000   0.000   8.506  -0.000  -0.000 -18.775
 total augmentation occupancy for first ion, spin component:           1
  8.288  -3.699   0.000   0.000   0.003   0.000   0.000   0.000
 -3.699   1.706   0.000   0.000  -0.002   0.000   0.000  -0.000
  0.000   0.000   1.833  -0.000  -0.000   0.173   0.000  -0.000
 -0.000   0.000   0.000   1.211   0.000   0.000   0.077   0.000
  0.003  -0.002   0.000  -0.000   1.835  -0.000  -0.000   0.173
  0.000   0.000   0.173  -0.000   0.000   0.018  -0.000  -0.000
 -0.000   0.000   0.000   0.077  -0.000  -0.000   0.005   0.000
  0.000  -0.000   0.000   0.000   0.173  -0.000   0.000   0.018


------------------------ aborting loop because EDIFF is reached ----------------------------------------





 total charge     

# of ion       s       p       d       tot
------------------------------------------
    1        0.867   1.793   0.000   2.659
    2        0.867   1.793   0.000   2.659
    3        0.867   1.793   0.000   2.659
    4        0.867   1.793   0.000   2.659
--------------------------------------------------
tot          3.467   7.170   0.000  10.638

    CHARGE:  cpu time    0.0823: real time    0.0828
    FORLOC:  cpu time    0.0096: real time    0.0096
    FORNL :  cpu time    0.3393: real time    0.3407
    STRESS:  cpu time    0.9163: real time    0.9196
    FORCOR:  cpu time    0.1185: real time    0.1187
    FORHAR:  cpu time    0.0319: real time    0.0320
    MIXING:  cpu time    0.0039: real time    0.0039
    OFIELD:  cpu time    0.0000: real time    0.0000

  FORCE on cell =-STRESS in cart. coord.  units (eV):
  Direction    XX          YY          ZZ          XY          YZ          ZX
  --------------------------------------------------------------------------------------
  Alpha Z     6.24866     6.24866     6.24866
  Ewald    3132.56493  3132.23555 -3670.55045     0.00000     0.00000     0.00000
  Hartree  3065.55474  3065.48188 -3042.92635    -0.00000    -0.00000    -0.00000
  E(xc)     -59.44659   -59.44663   -61.67635     0.00000     0.00000    -0.00000
  Local   -6369.42870 -6369.07135  6507.87578    -0.00000    -0.00000    -0.00000
  n-local   -14.24335   -14.21654   -12.97515     0.05421    -0.00000    -0.00000
  augment    -1.55085    -1.55159    -1.42951     0.00000    -0.00000    -0.00000
  Kinetic   240.29183   240.34912   274.86887    -3.17631     0.00000     0.00000
  Fock        0.00000     0.00000     0.00000     0.00000     0.00000     0.00000
  -------------------------------------------------------------------------------------
  Total      -0.00933     0.02908    -0.56450     0.00000     0.00000     0.00000
  in kB      -0.07107     0.22149    -4.29984     0.00000     0.00000     0.00000
  external pressure =       -1.38 kB  Pullay stress =        0.00 kB


 VOLUME and BASIS-vectors are now :
 -----------------------------------------------------------------------------
  energy-cutoff  :      400.00
  volume of cell :      210.34
      direct lattice vectors                 reciprocal lattice vectors
     4.266220405  0.000000000  0.000000000     0.234399516  0.000000000  0.000000000
     0.000000000  2.465188698  0.000000000     0.000000000  0.405648461  0.000000000
     0.000000000  0.000000000 20.000000000     0.000000000  0.000000000  0.050000000

  length of vectors
     4.266220405  2.465188698 20.000000000     0.234399516  0.405648461  0.050000000


 FORCES acting on ions
    electron-ion (+dipol)            ewald-force                    non-local-force                 convergence-correction
 -----------------------------------------------------------------------------------------------
   0.208E+00 -.566E-09 0.808E-06   -.207E+00 0.235E-07 -.796E-20   -.542E-03 -.208E-16 0.000E+00   -.272E-06 -.151E-14 -.709E-14
   -.208E+00 -.566E-09 -.808E-06   0.207E+00 0.235E-07 0.403E-17   0.542E-03 0.694E-17 0.162E-26   0.272E-06 0.466E-15 -.733E-14
   -.208E+00 -.184E-07 -.808E-06   0.207E+00 -.235E-07 -.480E-17   0.542E-03 0.694E-17 0.000E+00   0.272E-06 0.157E-14 -.721E-14
   0.208E+00 -.184E-07 0.808E-06   -.207E+00 -.235E-07 0.779E-18   -.542E-03 0.208E-16 0.162E-26   -.272E-06 -.518E-15 -.707E-14
 -----------------------------------------------------------------------------------------------
   -.380E-07 -.380E-07 0.125E-11   0.638E-15 -.768E-14 0.000E+00   -.217E-18 0.139E-16 0.323E-26   0.857E-15 0.714E-17 -.287E-13


 POSITION                                       TOTAL-FORCE (eV/Angst)
 -----------------------------------------------------------------------------------
      1.42213      0.00000     10.00000         0.001184     -0.000000     -0.000000
      2.84409      0.00000     10.00000        -0.001184      0.000000      0.000000
      0.71098      1.23259     10.00000        -0.001184      0.000000      0.000000
      3.55524      1.23259     10.00000         0.001184      0.000000     -0.000000
 -----------------------------------------------------------------------------------
    total drift:                               -0.000000     -0.000000      0.000000


--------------------------------------------------------------------------------------------------------



  FREE ENERGIE OF THE ION-ELECTRON SYSTEM (eV)
  ---------------------------------------------------
  free  energy   TOTEN  =       -36.91470334 eV

  energy  without entropy=      -36.91470334  energy(sigma->0) =      -36.91470334



--------------------------------------------------------------------------------------------------------


    POTLOK:  cpu time    0.1103: real time    0.1105


--------------------------------------------------------------------------------------------------------


     LOOP+:  cpu time   21.7785: real time   21.8684
    4ORBIT:  cpu time    0.0000: real time    0.0000



 total charge     

# of ion       s       p       d       tot
------------------------------------------
    1        0.867   1.793   0.000   2.659
    2        0.867   1.793   0.000   2.659
    3        0.867   1.793   0.000   2.659
    4        0.867   1.793   0.000   2.659
--------------------------------------------------
tot          3.467   7.170   0.000  10.638

 BZINTS: Fermi energy: -3.362788; 16.000000 electrons
         Band energy:-190.219852;  BLOECHL correction:  0.000000

 total amount of memory used by VASP MPI-rank0    72317. kBytes
=======================================================================

   base      :      30000. kBytes
   nonl-proj :       3969. kBytes
   fftplans  :       8715. kBytes
   grid      :      14615. kBytes
   one-center:         12. kBytes
   wavefun   :      15006. kBytes

  
  
 General timing and accounting informations for this job:
 ========================================================
  
                  Total CPU time used (sec):       23.453
                            User time (sec):       23.130
                          System time (sec):        0.323
                         Elapsed time (sec):       23.653
  
                   Maximum memory used (kb):   100708352.
                   Average memory used (kb):           0.
  
                          Minor page faults:        33656
                          Major page faults:          115
                 Voluntary context switches:           48
