<?xml version="1.0" encoding="ISO-8859-1"?>
<modeling>
 <generator>
  <i name="program" type="string">vasp </i>
  <i name="version" type="string">5.4.4.18Apr17-6-g9f103f2a35  </i>
  <i name="subversion" type="string">(build May 21 2018 15:16:00) complex            parallel </i>
  <i name="platform" type="string">GUN_wannier90_optcell </i>
  <i name="date" type="string">2019 03 25 </i>
  <i name="time" type="string">10:29:45 </i>
 </generator>
 <incar>
  <i type="string" name="SYSTEM"> C</i>
  <i type="string" name="PREC">a</i>
  <i type="string" name="ALGO">     N ! Normal     algorithm</i>
  <i type="logical" name="LDIAG"> T  </i>
  <i type="int" name="NELM">  2000</i>
  <i type="int" name="NELMIN">     5</i>
  <i type="int" name="IBRION">    -1</i>
  <i name="EDIFF">      0.00000100</i>
  <i name="EDIFFG">     -0.01000000</i>
  <i type="int" name="NSW">     0</i>
  <i type="int" name="NBLOCK">     1</i>
  <i type="int" name="KBLOCK">     5</i>
  <i name="ENCUT">    400.00000000</i>
  <i type="int" name="NBANDS">    32</i>
  <i name="POTIM">      0.50000000</i>
  <i type="int" name="NEDOS">  3000</i>
  <i type="logical" name="LREAL"> F  </i>
  <i name="EMIN">    -15.00000000</i>
  <i name="EMAX">      5.00000000</i>
  <i type="int" name="ISMEAR">    -5</i>
  <i type="int" name="NWRITE">     1</i>
  <i type="logical" name="LCORR"> T  </i>
  <i type="logical" name="LWAVE"> F  </i>
  <i type="logical" name="LCHARG"> F  </i>
  <i type="int" name="LORBIT">    11</i>
  <v type="int" name="KPOINT_BSE">    -1     0     0     0</v>
  <i type="int" name="NELM">  2000</i>
  <i type="logical" name="LWANNIER90"> T  </i>
 </incar>
 <structure name="primitive_cell" >
  <crystal>
   <varray name="basis" >
    <v>       2.13311020      -1.23259435       0.00000000 </v>
    <v>      -2.13311020      -1.23259435       0.00000000 </v>
    <v>       0.00000000       0.00000000     -20.00000000 </v>
   </varray>
   <i name="volume">    105.17038321 </i>
   <varray name="rec_basis" >
    <v>       0.23439952      -0.40564846       0.00000000 </v>
    <v>      -0.23439952      -0.40564846      -0.00000000 </v>
    <v>       0.00000000      -0.00000000      -0.05000000 </v>
   </varray>
  </crystal>
  <varray name="positions" >
   <v>       0.33334688      -0.33334688      -0.50000000 </v>
   <v>      -0.33334688       0.33334688      -0.50000000 </v>
  </varray>
 </structure>
 <varray name="primitive_index" >
  <v type="int" >        1 </v>
  <v type="int" >        2 </v>
 </varray>
 <kpoints>
  <generation param="Gamma">
   <v type="int" name="divisions">       4        8        1 </v>
   <v name="usershift">      0.00000000       0.00000000       0.00000000 </v>
   <v name="genvec1">      0.25000000       0.00000000       0.00000000 </v>
   <v name="genvec2">      0.00000000       0.12500000       0.00000000 </v>
   <v name="genvec3">      0.00000000       0.00000000       1.00000000 </v>
   <v name="shift">      0.00000000       0.00000000       0.00000000 </v>
  </generation>
  <varray name="kpointlist" >
   <v>       0.00000000       0.00000000       0.00000000 </v>
   <v>       0.25000000       0.00000000       0.00000000 </v>
   <v>       0.50000000       0.00000000       0.00000000 </v>
   <v>       0.00000000       0.12500000       0.00000000 </v>
   <v>       0.25000000       0.12500000       0.00000000 </v>
   <v>       0.50000000       0.12500000       0.00000000 </v>
   <v>       0.00000000       0.25000000       0.00000000 </v>
   <v>       0.25000000       0.25000000       0.00000000 </v>
   <v>       0.50000000       0.25000000       0.00000000 </v>
   <v>       0.00000000       0.37500000       0.00000000 </v>
   <v>       0.25000000       0.37500000       0.00000000 </v>
   <v>       0.50000000       0.37500000       0.00000000 </v>
   <v>       0.00000000       0.50000000       0.00000000 </v>
   <v>       0.25000000       0.50000000       0.00000000 </v>
   <v>       0.50000000       0.50000000       0.00000000 </v>
  </varray>
  <varray name="weights" >
   <v>       0.03125000 </v>
   <v>       0.06250000 </v>
   <v>       0.03125000 </v>
   <v>       0.06250000 </v>
   <v>       0.12500000 </v>
   <v>       0.06250000 </v>
   <v>       0.06250000 </v>
   <v>       0.12500000 </v>
   <v>       0.06250000 </v>
   <v>       0.06250000 </v>
   <v>       0.12500000 </v>
   <v>       0.06250000 </v>
   <v>       0.03125000 </v>
   <v>       0.06250000 </v>
   <v>       0.03125000 </v>
  </varray>
  <varray name="tetrahedronlist"  type="int" >
   <v type="int" >        2        1        1        2        5 </v>
   <v type="int" >        2        1        1        4        5 </v>
   <v type="int" >        2        1        4        4        5 </v>
   <v type="int" >        2        1        2        2        5 </v>
   <v type="int" >        2        1        2        5        5 </v>
   <v type="int" >        2        1        4        5        5 </v>
   <v type="int" >        2        2        2        3        6 </v>
   <v type="int" >        2        2        2        5        6 </v>
   <v type="int" >        2        2        5        5        6 </v>
   <v type="int" >        2        2        3        3        6 </v>
   <v type="int" >        2        2        3        6        6 </v>
   <v type="int" >        2        2        5        6        6 </v>
   <v type="int" >        2        2        3        3        5 </v>
   <v type="int" >        2        3        3        5        6 </v>
   <v type="int" >        2        3        5        6        6 </v>
   <v type="int" >        2        2        2        3        5 </v>
   <v type="int" >        2        2        3        5        5 </v>
   <v type="int" >        2        3        5        5        6 </v>
   <v type="int" >        2        1        2        2        4 </v>
   <v type="int" >        2        2        2        4        5 </v>
   <v type="int" >        2        2        4        5        5 </v>
   <v type="int" >        2        1        1        2        4 </v>
   <v type="int" >        2        1        2        4        4 </v>
   <v type="int" >        2        2        4        4        5 </v>
   <v type="int" >        2        4        4        5        8 </v>
   <v type="int" >        2        4        4        7        8 </v>
   <v type="int" >        2        4        7        7        8 </v>
   <v type="int" >        2        4        5        5        8 </v>
   <v type="int" >        2        4        5        8        8 </v>
   <v type="int" >        2        4        7        8        8 </v>
   <v type="int" >        2        5        5        6        9 </v>
   <v type="int" >        2        5        5        8        9 </v>
   <v type="int" >        2        5        8        8        9 </v>
   <v type="int" >        2        5        6        6        9 </v>
   <v type="int" >        2        5        6        9        9 </v>
   <v type="int" >        2        5        8        9        9 </v>
   <v type="int" >        2        5        6        6        8 </v>
   <v type="int" >        2        6        6        8        9 </v>
   <v type="int" >        2        6        8        9        9 </v>
   <v type="int" >        2        5        5        6        8 </v>
   <v type="int" >        2        5        6        8        8 </v>
   <v type="int" >        2        6        8        8        9 </v>
   <v type="int" >        2        4        5        5        7 </v>
   <v type="int" >        2        5        5        7        8 </v>
   <v type="int" >        2        5        7        8        8 </v>
   <v type="int" >        2        4        4        5        7 </v>
   <v type="int" >        2        4        5        7        7 </v>
   <v type="int" >        2        5        7        7        8 </v>
   <v type="int" >        2        7        7        8       11 </v>
   <v type="int" >        2        7        7       10       11 </v>
   <v type="int" >        2        7       10       10       11 </v>
   <v type="int" >        2        7        8        8       11 </v>
   <v type="int" >        2        7        8       11       11 </v>
   <v type="int" >        2        7       10       11       11 </v>
   <v type="int" >        2        8        8        9       12 </v>
   <v type="int" >        2        8        8       11       12 </v>
   <v type="int" >        2        8       11       11       12 </v>
   <v type="int" >        2        8        9        9       12 </v>
   <v type="int" >        2        8        9       12       12 </v>
   <v type="int" >        2        8       11       12       12 </v>
   <v type="int" >        2        8        9        9       11 </v>
   <v type="int" >        2        9        9       11       12 </v>
   <v type="int" >        2        9       11       12       12 </v>
   <v type="int" >        2        8        8        9       11 </v>
   <v type="int" >        2        8        9       11       11 </v>
   <v type="int" >        2        9       11       11       12 </v>
   <v type="int" >        2        7        8        8       10 </v>
   <v type="int" >        2        8        8       10       11 </v>
   <v type="int" >        2        8       10       11       11 </v>
   <v type="int" >        2        7        7        8       10 </v>
   <v type="int" >        2        7        8       10       10 </v>
   <v type="int" >        2        8       10       10       11 </v>
   <v type="int" >        2       10       10       11       14 </v>
   <v type="int" >        2       10       10       13       14 </v>
   <v type="int" >        2       10       13       13       14 </v>
   <v type="int" >        2       10       11       11       14 </v>
   <v type="int" >        2       10       11       14       14 </v>
   <v type="int" >        2       10       13       14       14 </v>
   <v type="int" >        2       11       11       12       15 </v>
   <v type="int" >        2       11       11       14       15 </v>
   <v type="int" >        2       11       14       14       15 </v>
   <v type="int" >        2       11       12       12       15 </v>
   <v type="int" >        2       11       12       15       15 </v>
   <v type="int" >        2       11       14       15       15 </v>
   <v type="int" >        2       11       12       12       14 </v>
   <v type="int" >        2       12       12       14       15 </v>
   <v type="int" >        2       12       14       15       15 </v>
   <v type="int" >        2       11       11       12       14 </v>
   <v type="int" >        2       11       12       14       14 </v>
   <v type="int" >        2       12       14       14       15 </v>
   <v type="int" >        2       10       11       11       13 </v>
   <v type="int" >        2       11       11       13       14 </v>
   <v type="int" >        2       11       13       14       14 </v>
   <v type="int" >        2       10       10       11       13 </v>
   <v type="int" >        2       10       11       13       13 </v>
   <v type="int" >        2       11       13       13       14 </v>
  </varray>
  <i name="volumeweight">      0.00520833 </i>
 </kpoints>
 <parameters>
  <separator name="general" >
   <i type="string" name="SYSTEM">C</i>
   <i type="logical" name="LCOMPAT"> F  </i>
  </separator>
  <separator name="electronic" >
   <i type="string" name="PREC">a</i>
   <i name="ENMAX">    400.00000000</i>
   <i name="ENAUG">    644.87300000</i>
   <i name="EDIFF">      0.00000100</i>
   <i type="int" name="IALGO">    38</i>
   <i type="int" name="IWAVPR">    10</i>
   <i type="int" name="NBANDS">    32</i>
   <i name="NELECT">     16.00000000</i>
   <i type="int" name="TURBO">     0</i>
   <i type="int" name="IRESTART">     0</i>
   <i type="int" name="NREBOOT">     0</i>
   <i type="int" name="NMIN">     0</i>
   <i name="EREF">      0.00000000</i>
   <separator name="electronic smearing" >
    <i type="int" name="ISMEAR">    -5</i>
    <i name="SIGMA">      0.20000000</i>
    <i name="KSPACING">      0.50000000</i>
    <i type="logical" name="KGAMMA"> T  </i>
   </separator>
   <separator name="electronic projectors" >
    <i type="logical" name="LREAL"> F  </i>
    <v name="ROPT">      0.00000000</v>
    <i type="int" name="LMAXPAW">  -100</i>
    <i type="int" name="LMAXMIX">     2</i>
    <i type="logical" name="NLSPLINE"> F  </i>
   </separator>
   <separator name="electronic startup" >
    <i type="int" name="ISTART">     1</i>
    <i type="int" name="ICHARG">     0</i>
    <i type="int" name="INIWAV">     1</i>
   </separator>
   <separator name="electronic spin" >
    <i type="int" name="ISPIN">     1</i>
    <i type="logical" name="LNONCOLLINEAR"> F  </i>
    <v name="MAGMOM">      1.00000000      1.00000000      1.00000000      1.00000000</v>
    <i name="NUPDOWN">     -1.00000000</i>
    <i type="logical" name="LSORBIT"> F  </i>
    <v name="SAXIS">      0.00000000      0.00000000      1.00000000</v>
    <i type="logical" name="LSPIRAL"> F  </i>
    <v name="QSPIRAL">      0.00000000      0.00000000      0.00000000</v>
    <i type="logical" name="LZEROZ"> F  </i>
   </separator>
   <separator name="electronic exchange-correlation" >
    <i type="logical" name="LASPH"> F  </i>
    <i type="logical" name="LMETAGGA"> F  </i>
   </separator>
   <separator name="electronic convergence" >
    <i type="int" name="NELM">  2000</i>
    <i type="int" name="NELMDL">     0</i>
    <i type="int" name="NELMIN">     5</i>
    <i name="ENINI">    400.00000000</i>
    <separator name="electronic convergence detail" >
     <i type="logical" name="LDIAG"> T  </i>
     <i type="logical" name="LSUBROT"> F  </i>
     <i name="WEIMIN">      0.00000000</i>
     <i name="EBREAK">      0.00000001</i>
     <i name="DEPER">      0.30000000</i>
     <i type="int" name="NRMM">     4</i>
     <i name="TIME">      0.40000000</i>
    </separator>
   </separator>
   <separator name="electronic mixer" >
    <i name="AMIX">      0.40000000</i>
    <i name="BMIX">      1.00000000</i>
    <i name="AMIN">      0.10000000</i>
    <i name="AMIX_MAG">      1.60000000</i>
    <i name="BMIX_MAG">      1.00000000</i>
    <separator name="electronic mixer details" >
     <i type="int" name="IMIX">     4</i>
     <i type="logical" name="MIXFIRST"> F  </i>
     <i type="int" name="MAXMIX">   -45</i>
     <i name="WC">    100.00000000</i>
     <i type="int" name="INIMIX">     1</i>
     <i type="int" name="MIXPRE">     1</i>
     <i type="int" name="MREMOVE">     5</i>
    </separator>
   </separator>
   <separator name="electronic dipolcorrection" >
    <i type="logical" name="LDIPOL"> F  </i>
    <i type="logical" name="LMONO"> F  </i>
    <i type="int" name="IDIPOL">     0</i>
    <i name="EPSILON">      1.00000000</i>
    <v name="DIPOL">   -100.00000000   -100.00000000   -100.00000000</v>
    <i name="EFIELD">      0.00000000</i>
   </separator>
  </separator>
  <separator name="grids" >
   <i type="int" name="NGX">    28</i>
   <i type="int" name="NGY">    16</i>
   <i type="int" name="NGZ">   140</i>
   <i type="int" name="NGXF">    56</i>
   <i type="int" name="NGYF">    32</i>
   <i type="int" name="NGZF">   280</i>
   <i type="logical" name="ADDGRID"> F  </i>
  </separator>
  <separator name="ionic" >
   <i type="int" name="NSW">     0</i>
   <i type="int" name="IBRION">    -1</i>
   <i type="int" name="MDALGO">     0</i>
   <i type="int" name="ISIF">     2</i>
   <i name="PSTRESS">      0.00000000</i>
   <i name="EDIFFG">     -0.01000000</i>
   <i type="int" name="NFREE">     0</i>
   <i name="POTIM">      0.50000000</i>
   <i name="SMASS">     -3.00000000</i>
   <i name="SCALEE">      1.00000000</i>
  </separator>
  <separator name="ionic md" >
   <i name="TEBEG">      0.00010000</i>
   <i name="TEEND">      0.00010000</i>
   <i type="int" name="NBLOCK">     1</i>
   <i type="int" name="KBLOCK">     1</i>
   <i type="int" name="NPACO">   256</i>
   <i name="APACO">     16.00000000</i>
  </separator>
  <separator name="symmetry" >
   <i type="int" name="ISYM">     2</i>
   <i name="SYMPREC">      0.00001000</i>
  </separator>
  <separator name="dos" >
   <i type="int" name="LORBIT">    11</i>
   <v name="RWIGS">     -1.00000000</v>
   <i type="int" name="NEDOS">  3000</i>
   <i name="EMIN">    -15.00000000</i>
   <i name="EMAX">      5.00000000</i>
   <i name="EFERMI">      0.00000000</i>
  </separator>
  <separator name="writing" >
   <i type="int" name="NWRITE">     1</i>
   <i type="logical" name="LWAVE"> F  </i>
   <i type="logical" name="LDOWNSAMPLE"> F  </i>
   <i type="logical" name="LCHARG"> F  </i>
   <i type="logical" name="LPARD"> F  </i>
   <i type="logical" name="LVTOT"> F  </i>
   <i type="logical" name="LVHAR"> F  </i>
   <i type="logical" name="LELF"> F  </i>
   <i type="logical" name="LOPTICS"> F  </i>
   <v name="STM">      0.00000000      0.00000000      0.00000000      0.00000000      0.00000000      0.00000000      0.00000000</v>
  </separator>
  <separator name="performance" >
   <i type="int" name="NPAR">     2</i>
   <i type="int" name="NSIM">     4</i>
   <i type="int" name="NBLK">    -1</i>
   <i type="logical" name="LPLANE"> T  </i>
   <i type="logical" name="LSCALAPACK"> T  </i>
   <i type="logical" name="LSCAAWARE"> F  </i>
   <i type="logical" name="LSCALU"> F  </i>
   <i type="logical" name="LASYNC"> F  </i>
   <i type="logical" name="LORBITALREAL"> F  </i>
  </separator>
  <separator name="miscellaneous" >
   <i type="int" name="IDIOT">     3</i>
   <i type="int" name="ISPECIAL">     0</i>
   <i type="logical" name="LMUSIC"> F  </i>
   <v name="POMASS">     12.01100000</v>
   <v name="DARWINR">      0.00000000</v>
   <v name="DARWINV">      1.00000000</v>
   <i type="logical" name="LCORR"> T  </i>
  </separator>
  <i type="logical" name="GGA_COMPAT"> T  </i>
  <i type="logical" name="LBERRY"> F  </i>
  <i type="int" name="ICORELEVEL">     0</i>
  <i type="logical" name="LDAU"> F  </i>
  <i type="int" name="I_CONSTRAINED_M">     0</i>
  <separator name="electronic exchange-correlation" >
   <i type="string" name="GGA">--</i>
   <i type="int" name="VOSKOWN">     0</i>
   <i type="logical" name="LHFCALC"> F  </i>
   <i type="string" name="PRECFOCK"></i>
   <i type="logical" name="LSYMGRAD"> F  </i>
   <i type="logical" name="LHFONE"> F  </i>
   <i type="logical" name="LRHFCALC"> F  </i>
   <i type="logical" name="LTHOMAS"> F  </i>
   <i type="logical" name="LMODELHF"> F  </i>
   <i name="ENCUT4O">     -1.00000000</i>
   <i type="int" name="EXXOEP">     0</i>
   <i type="int" name="FOURORBIT">     0</i>
   <i name="AEXX">      0.00000000</i>
   <i name="HFALPHA">      0.00000000</i>
   <i name="MCALPHA">      0.00000000</i>
   <i name="ALDAX">      1.00000000</i>
   <i name="AGGAX">      1.00000000</i>
   <i name="ALDAC">      1.00000000</i>
   <i name="AGGAC">      1.00000000</i>
   <i type="int" name="NKREDX">     1</i>
   <i type="int" name="NKREDY">     1</i>
   <i type="int" name="NKREDZ">     1</i>
   <i type="logical" name="SHIFTRED"> F  </i>
   <i type="logical" name="ODDONLY"> F  </i>
   <i type="logical" name="EVENONLY"> F  </i>
   <i type="int" name="LMAXFOCK">     0</i>
   <i type="int" name="NMAXFOCKAE">     0</i>
   <i type="logical" name="LFOCKAEDFT"> F  </i>
   <i name="HFSCREEN">      0.00000000</i>
   <i name="HFSCREENC">      0.00000000</i>
   <i type="int" name="NBANDSGWLOW">     0</i>
  </separator>
  <separator name="vdW DFT" >
   <i type="logical" name="LUSE_VDW"> F  </i>
   <i name="Zab_VDW">     -0.84910000</i>
   <i name="PARAM1">      0.12340000</i>
   <i name="PARAM2">      1.00000000</i>
   <i name="PARAM3">      0.00000000</i>
  </separator>
  <separator name="model GW" >
   <i type="int" name="MODEL_GW">     0</i>
   <i name="MODEL_EPS0">     31.55111497</i>
   <i name="MODEL_ALPHA">      1.00000000</i>
  </separator>
  <separator name="linear response parameters" >
   <i type="logical" name="LEPSILON"> F  </i>
   <i type="logical" name="LRPA"> F  </i>
   <i type="logical" name="LNABLA"> F  </i>
   <i type="logical" name="LVEL"> F  </i>
   <i type="int" name="KINTER">     0</i>
   <i name="CSHIFT">      0.10000000</i>
   <i name="OMEGAMAX">     -1.00000000</i>
   <i name="DEG_THRESHOLD">      0.00200000</i>
   <i name="RTIME">     -0.10000000</i>
   <i name="WPLASMAI">      0.00000000</i>
   <v name="DFIELD">      0.00000000      0.00000000      0.00000000</v>
   <v name="WPLASMA">      0.00000000      0.00000000      0.00000000      0.00000000      0.00000000      0.00000000      0.00000000      0.00000000      0.00000000</v>
  </separator>
  <separator name="orbital magnetization" >
   <i type="logical" name="NUCIND"> F  </i>
   <v name="MAGPOS">      0.00000000      0.00000000      0.00000000</v>
   <i type="logical" name="LNICSALL"> T  </i>
   <i type="logical" name="ORBITALMAG"> F  </i>
   <i type="logical" name="LMAGBLOCH"> F  </i>
   <i type="logical" name="LCHIMAG"> F  </i>
   <i type="logical" name="LGAUGE"> T  </i>
   <i type="int" name="MAGATOM">     0</i>
   <v name="MAGDIPOL">      0.00000000      0.00000000      0.00000000</v>
   <v name="AVECCONST">      0.00000000      0.00000000      0.00000000</v>
  </separator>
  <separator name="response functions" >
   <i type="logical" name="LADDER"> F  </i>
   <i type="logical" name="LRPAFORCE"> F  </i>
   <i type="logical" name="LFXC"> F  </i>
   <i type="logical" name="LHARTREE"> T  </i>
   <i type="int" name="IBSE">     0</i>
   <v type="int" name="KPOINT">    -1     0     0     0</v>
   <i type="logical" name="LTCTE"> F  </i>
   <i type="logical" name="LTETE"> F  </i>
   <i type="logical" name="LTRIPLET"> F  </i>
   <i type="logical" name="LFXCEPS"> F  </i>
   <i type="logical" name="LFXHEG"> F  </i>
   <i type="int" name="NATURALO">     2</i>
   <i type="logical" name="L2ORDER"> F  </i>
   <i type="logical" name="LMP2LT"> F  </i>
   <i type="logical" name="LUSEW"> F  </i>
   <i name="ENCUTGW">     -2.00000000</i>
   <i name="ENCUTGWSOFT">     -2.00000000</i>
   <i name="ENCUTLF">     -1.00000000</i>
   <i type="int" name="LMAXMP2">    -1</i>
   <i name="SCISSOR">      0.00000000</i>
   <i type="int" name="NOMEGA">     0</i>
   <i type="int" name="NOMEGAR">     0</i>
   <i type="int" name="NBANDSGW">    -1</i>
   <i type="int" name="NBANDSO">    -1</i>
   <i type="int" name="NBANDSV">    -1</i>
   <i type="int" name="NELM">  2000</i>
   <i type="int" name="NELMHF">     1</i>
   <i type="int" name="DIM">     3</i>
   <i type="int" name="ANTIRES">     0</i>
   <i name="OMEGAMAX">    -30.00000000</i>
   <i name="OMEGAMIN">    -30.00000000</i>
   <i name="OMEGATL">   -200.00000000</i>
   <i type="int" name="OMEGAGRID">   140</i>
   <i name="CSHIFT">     -0.10000000</i>
   <i type="logical" name="SELFENERGY"> F  </i>
   <i type="logical" name="LSPECTRAL"> F  </i>
   <i type="logical" name="LSPECTRALGW"> F  </i>
   <i type="logical" name="LSINGLES"> F  </i>
   <i type="logical" name="LFERMIGW"> F  </i>
   <i type="logical" name="ODDONLYGW"> F  </i>
   <i type="logical" name="EVENONLYGW"> F  </i>
   <i type="int" name="NKREDLFX">     1</i>
   <i type="int" name="NKREDLFY">     1</i>
   <i type="int" name="NKREDLFZ">     1</i>
   <i type="int" name="MAXMEM">  2800</i>
   <i type="int" name="TELESCOPE">     0</i>
   <i type="int" name="TAUPAR">     1</i>
   <i type="int" name="OMEGAPAR">    -1</i>
   <i name="LAMBDA">      1.00000000</i>
  </separator>
  <separator name="External order field" >
   <i name="OFIELD_KAPPA">      0.00000000</i>
   <v name="OFIELD_K">      0.00000000      0.00000000      0.00000000</v>
   <i name="OFIELD_Q6_NEAR">      0.00000000</i>
   <i name="OFIELD_Q6_FAR">      0.00000000</i>
   <i name="OFIELD_A">      0.00000000</i>
  </separator>
 </parameters>
 <atominfo>
  <atoms>       4 </atoms>
  <types>       1 </types>
  <array name="atoms" >
   <dimension dim="1">ion</dimension>
   <field type="string">element</field>
   <field type="int">atomtype</field>
   <set>
    <rc><c>C </c><c>   1</c></rc>
    <rc><c>C </c><c>   1</c></rc>
    <rc><c>C </c><c>   1</c></rc>
    <rc><c>C </c><c>   1</c></rc>
   </set>
  </array>
  <array name="atomtypes" >
   <dimension dim="1">type</dimension>
   <field type="int">atomspertype</field>
   <field type="string">element</field>
   <field>mass</field>
   <field>valence</field>
   <field type="string">pseudopotential</field>
   <set>
    <rc><c>   4</c><c>C </c><c>     12.01100000</c><c>      4.00000000</c><c>  PAW_PBE C 08Apr2002                   </c></rc>
   </set>
  </array>
 </atominfo>
 <structure name="initialpos" >
  <crystal>
   <varray name="basis" >
    <v>       4.26622041       0.00000000       0.00000000 </v>
    <v>       0.00000000       2.46518870       0.00000000 </v>
    <v>       0.00000000       0.00000000      20.00000000 </v>
   </varray>
   <i name="volume">    210.34076648 </i>
   <varray name="rec_basis" >
    <v>       0.23439952       0.00000000       0.00000000 </v>
    <v>       0.00000000       0.40564846       0.00000000 </v>
    <v>       0.00000000       0.00000000       0.05000000 </v>
   </varray>
  </crystal>
  <varray name="positions" >
   <v>       0.33334688       0.00000000       0.50000000 </v>
   <v>       0.66665312       0.00000000       0.50000000 </v>
   <v>       0.16665312       0.50000000       0.50000000 </v>
   <v>       0.83334688       0.50000000       0.50000000 </v>
  </varray>
 </structure>
 <calculation>
  <scstep>
   <time name="dav">    2.42    2.45</time>
   <time name="total">    2.65    2.68</time>
   <energy>
    <i name="alphaZ">      6.24865773 </i>
    <i name="ewald">   2594.25031041 </i>
    <i name="hartreedc">  -3088.11007419 </i>
    <i name="XCdc">     55.11387344 </i>
    <i name="pawpsdc">   1719.67841729 </i>
    <i name="pawaedc">  -1722.38475428 </i>
    <i name="eentropy">      0.00000000 </i>
    <i name="bandstr">   -190.22002923 </i>
    <i name="atom">    588.50889549 </i>
    <i name="e_fr_energy">    -36.91470334 </i>
    <i name="e_wo_entrp">    -36.91470334 </i>
    <i name="e_0_energy">    -36.91470334 </i>
   </energy>
  </scstep>
  <scstep>
   <time name="dav">    2.44    2.45</time>
   <time name="total">    2.65    2.66</time>
   <energy>
    <i name="e_fr_energy">    -36.91470334 </i>
    <i name="e_wo_entrp">    -36.91470334 </i>
    <i name="e_0_energy">    -36.91470334 </i>
   </energy>
  </scstep>
  <scstep>
   <time name="dav">    2.04    2.05</time>
   <time name="total">    2.25    2.26</time>
   <energy>
    <i name="e_fr_energy">    -36.91470334 </i>
    <i name="e_wo_entrp">    -36.91470334 </i>
    <i name="e_0_energy">    -36.91470334 </i>
   </energy>
  </scstep>
  <scstep>
   <time name="dav">    1.87    1.87</time>
   <time name="total">    2.07    2.07</time>
   <energy>
    <i name="e_fr_energy">    -36.91470334 </i>
    <i name="e_wo_entrp">    -36.91470334 </i>
    <i name="e_0_energy">    -36.91470334 </i>
   </energy>
  </scstep>
  <scstep>
   <time name="dav">    1.67    1.67</time>
   <time name="total">    1.79    1.79</time>
   <energy>
    <i name="alphaZ">      6.24865773 </i>
    <i name="ewald">   2594.25031041 </i>
    <i name="hartreedc">  -3088.11025735 </i>
    <i name="XCdc">     55.11388187 </i>
    <i name="pawpsdc">   1719.67713669 </i>
    <i name="pawaedc">  -1722.38347568 </i>
    <i name="eentropy">      0.00000000 </i>
    <i name="bandstr">   -190.21985249 </i>
    <i name="atom">    588.50889549 </i>
    <i name="e_fr_energy">    -36.91470334 </i>
    <i name="e_wo_entrp">    -36.91470334 </i>
    <i name="e_0_energy">    -36.91470334 </i>
   </energy>
  </scstep>
  <structure>
   <crystal>
    <varray name="basis" >
     <v>       4.26622041       0.00000000       0.00000000 </v>
     <v>       0.00000000       2.46518870       0.00000000 </v>
     <v>       0.00000000       0.00000000      20.00000000 </v>
    </varray>
    <i name="volume">    210.34076648 </i>
    <varray name="rec_basis" >
     <v>       0.23439952       0.00000000       0.00000000 </v>
     <v>       0.00000000       0.40564846       0.00000000 </v>
     <v>       0.00000000       0.00000000       0.05000000 </v>
    </varray>
   </crystal>
   <varray name="positions" >
    <v>       0.33334688       0.00000000       0.50000000 </v>
    <v>       0.66665312       0.00000000       0.50000000 </v>
    <v>       0.16665312       0.50000000       0.50000000 </v>
    <v>       0.83334688       0.50000000       0.50000000 </v>
   </varray>
  </structure>
  <varray name="forces" >
   <v>       0.00118420      -0.00000000      -0.00000000 </v>
   <v>      -0.00118420       0.00000000       0.00000000 </v>
   <v>      -0.00118420       0.00000000       0.00000000 </v>
   <v>       0.00118420       0.00000000      -0.00000000 </v>
  </varray>
  <varray name="stress" >
   <v>      -0.07106691       0.00000000       0.00000000 </v>
   <v>       0.00000000       0.22149262       0.00000000 </v>
   <v>       0.00000000       0.00000000      -4.29984164 </v>
  </varray>
  <energy>
   <i name="e_fr_energy">    -36.91470334 </i>
   <i name="e_wo_entrp">    -36.91470334 </i>
   <i name="e_0_energy">      0.00000000 </i>
  </energy>
  <time name="totalsc">   21.78   21.87</time>
  <eigenvalues>
   <array>
    <dimension dim="1">band</dimension>
    <dimension dim="2">kpoint</dimension>
    <dimension dim="3">spin</dimension>
    <field>eigene</field>
    <field>occ</field>
    <set>
     <set comment="spin 1">
      <set comment="kpoint 1">
       <r>  -22.2788    1.0000 </r>
       <r>  -17.0187    1.0000 </r>
       <r>  -15.9902    1.0000 </r>
       <r>  -10.3742    1.0000 </r>
       <r>   -9.1653    1.0000 </r>
       <r>   -5.7700    1.0000 </r>
       <r>   -5.7691    1.0000 </r>
       <r>   -5.0968    1.0000 </r>
       <r>   -1.0594    0.0000 </r>
       <r>    0.5177    0.0000 </r>
       <r>    1.3072    0.0000 </r>
       <r>    1.6302    0.0000 </r>
       <r>    2.5498    0.0000 </r>
       <r>    3.0205    0.0000 </r>
       <r>    4.6344    0.0000 </r>
       <r>    4.6843    0.0000 </r>
       <r>    5.3075    0.0000 </r>
       <r>    5.6075    0.0000 </r>
       <r>    5.6306    0.0000 </r>
       <r>    7.6399    0.0000 </r>
       <r>    8.3908    0.0000 </r>
       <r>    8.4351    0.0000 </r>
       <r>    8.5430    0.0000 </r>
       <r>    8.7353    0.0000 </r>
       <r>    9.2321    0.0000 </r>
       <r>    9.4330    0.0000 </r>
       <r>    9.8000    0.0000 </r>
       <r>    9.8617    0.0000 </r>
       <r>    9.8688    0.0000 </r>
       <r>   10.5485    0.0000 </r>
       <r>   10.7259    0.0000 </r>
       <r>   11.1292    0.0000 </r>
      </set>
      <set comment="kpoint 2">
       <r>  -21.9092    1.0000 </r>
       <r>  -19.0189    1.0000 </r>
       <r>  -13.4491    1.0000 </r>
       <r>   -9.9333    1.0000 </r>
       <r>   -8.8022    1.0000 </r>
       <r>   -7.1523    1.0000 </r>
       <r>   -6.6561    1.0000 </r>
       <r>   -6.4770    1.0000 </r>
       <r>    1.0201    0.0000 </r>
       <r>    1.0621    0.0000 </r>
       <r>    1.8159    0.0000 </r>
       <r>    2.1451    0.0000 </r>
       <r>    3.0599    0.0000 </r>
       <r>    3.5295    0.0000 </r>
       <r>    4.7715    0.0000 </r>
       <r>    5.0836    0.0000 </r>
       <r>    5.1889    0.0000 </r>
       <r>    5.6354    0.0000 </r>
       <r>    5.8668    0.0000 </r>
       <r>    5.8789    0.0000 </r>
       <r>    6.2662    0.0000 </r>
       <r>    7.1206    0.0000 </r>
       <r>    7.1317    0.0000 </r>
       <r>    7.5073    0.0000 </r>
       <r>    7.6126    0.0000 </r>
       <r>    8.1369    0.0000 </r>
       <r>    8.9440    0.0000 </r>
       <r>    9.1866    0.0000 </r>
       <r>    9.8551    0.0000 </r>
       <r>   10.5263    0.0000 </r>
       <r>   11.8579    0.0000 </r>
       <r>   11.9003    0.0000 </r>
      </set>
      <set comment="kpoint 3">
       <r>  -20.8100    1.0000 </r>
       <r>  -20.8100    1.0000 </r>
       <r>  -10.1655    1.0000 </r>
       <r>  -10.1655    1.0000 </r>
       <r>   -8.6413    1.0000 </r>
       <r>   -8.6413    1.0000 </r>
       <r>   -7.7921    1.0000 </r>
       <r>   -7.7921    1.0000 </r>
       <r>    2.5248    0.0000 </r>
       <r>    2.5248    0.0000 </r>
       <r>    3.3243    0.0000 </r>
       <r>    3.3243    0.0000 </r>
       <r>    3.6895    0.0000 </r>
       <r>    3.6895    0.0000 </r>
       <r>    4.4581    0.0000 </r>
       <r>    4.4581    0.0000 </r>
       <r>    4.6820    0.0000 </r>
       <r>    4.6820    0.0000 </r>
       <r>    5.0309    0.0000 </r>
       <r>    5.0309    0.0000 </r>
       <r>    5.3429    0.0000 </r>
       <r>    5.3429    0.0000 </r>
       <r>    6.7060    0.0000 </r>
       <r>    6.7060    0.0000 </r>
       <r>    7.3434    0.0000 </r>
       <r>    7.3434    0.0000 </r>
       <r>    9.6083    0.0000 </r>
       <r>    9.6083    0.0000 </r>
       <r>   10.4502    0.0000 </r>
       <r>   10.4502    0.0000 </r>
       <r>   10.7355    0.0000 </r>
       <r>   10.7355    0.0000 </r>
      </set>
      <set comment="kpoint 4">
       <r>  -22.0019    1.0000 </r>
       <r>  -16.7812    1.0000 </r>
       <r>  -15.7603    1.0000 </r>
       <r>  -10.2763    1.0000 </r>
       <r>  -10.0433    1.0000 </r>
       <r>   -6.7956    1.0000 </r>
       <r>   -6.3608    1.0000 </r>
       <r>   -4.7597    1.0000 </r>
       <r>   -1.1663    0.0000 </r>
       <r>    0.8939    0.0000 </r>
       <r>    1.6882    0.0000 </r>
       <r>    2.0157    0.0000 </r>
       <r>    2.9318    0.0000 </r>
       <r>    3.4017    0.0000 </r>
       <r>    5.0625    0.0000 </r>
       <r>    5.6411    0.0000 </r>
       <r>    5.8525    0.0000 </r>
       <r>    6.1745    0.0000 </r>
       <r>    6.6562    0.0000 </r>
       <r>    7.8041    0.0000 </r>
       <r>    8.0113    0.0000 </r>
       <r>    8.7124    0.0000 </r>
       <r>    8.8171    0.0000 </r>
       <r>    8.8872    0.0000 </r>
       <r>    9.1251    0.0000 </r>
       <r>    9.8148    0.0000 </r>
       <r>   10.2426    0.0000 </r>
       <r>   10.2515    0.0000 </r>
       <r>   10.3483    0.0000 </r>
       <r>   10.7012    0.0000 </r>
       <r>   11.1095    0.0000 </r>
       <r>   11.4756    0.0000 </r>
      </set>
      <set comment="kpoint 5">
       <r>  -21.6335    1.0000 </r>
       <r>  -18.7583    1.0000 </r>
       <r>  -13.2915    1.0000 </r>
       <r>   -9.8900    1.0000 </r>
       <r>   -9.6062    1.0000 </r>
       <r>   -7.9356    1.0000 </r>
       <r>   -7.0147    1.0000 </r>
       <r>   -6.3478    1.0000 </r>
       <r>    0.8893    0.0000 </r>
       <r>    1.3964    0.0000 </r>
       <r>    2.1961    0.0000 </r>
       <r>    2.5307    0.0000 </r>
       <r>    3.4412    0.0000 </r>
       <r>    3.9109    0.0000 </r>
       <r>    5.3864    0.0000 </r>
       <r>    5.5653    0.0000 </r>
       <r>    5.8950    0.0000 </r>
       <r>    6.2141    0.0000 </r>
       <r>    6.2396    0.0000 </r>
       <r>    6.3724    0.0000 </r>
       <r>    6.6549    0.0000 </r>
       <r>    6.6952    0.0000 </r>
       <r>    7.4774    0.0000 </r>
       <r>    7.7102    0.0000 </r>
       <r>    7.9926    0.0000 </r>
       <r>    8.5044    0.0000 </r>
       <r>    9.3233    0.0000 </r>
       <r>    9.4535    0.0000 </r>
       <r>   10.2236    0.0000 </r>
       <r>   11.2157    0.0000 </r>
       <r>   11.6552    0.0000 </r>
       <r>   11.6767    0.0000 </r>
      </set>
      <set comment="kpoint 6">
       <r>  -20.5386    1.0000 </r>
       <r>  -20.5386    1.0000 </r>
       <r>  -10.2641    1.0000 </r>
       <r>  -10.2641    1.0000 </r>
       <r>   -8.7352    1.0000 </r>
       <r>   -8.7352    1.0000 </r>
       <r>   -8.3241    1.0000 </r>
       <r>   -8.3241    1.0000 </r>
       <r>    2.9019    0.0000 </r>
       <r>    2.9019    0.0000 </r>
       <r>    3.7042    0.0000 </r>
       <r>    3.7042    0.0000 </r>
       <r>    4.0667    0.0000 </r>
       <r>    4.0667    0.0000 </r>
       <r>    4.0756    0.0000 </r>
       <r>    4.0756    0.0000 </r>
       <r>    4.9661    0.0000 </r>
       <r>    4.9661    0.0000 </r>
       <r>    5.4379    0.0000 </r>
       <r>    5.4379    0.0000 </r>
       <r>    6.7070    0.0000 </r>
       <r>    6.7070    0.0000 </r>
       <r>    7.0622    0.0000 </r>
       <r>    7.0622    0.0000 </r>
       <r>    7.7301    0.0000 </r>
       <r>    7.7301    0.0000 </r>
       <r>    9.1269    0.0000 </r>
       <r>    9.1269    0.0000 </r>
       <r>    9.9349    0.0000 </r>
       <r>    9.9349    0.0000 </r>
       <r>   10.8305    0.0000 </r>
       <r>   10.8305    0.0000 </r>
      </set>
      <set comment="kpoint 7">
       <r>  -21.1768    1.0000 </r>
       <r>  -16.0705    1.0000 </r>
       <r>  -15.2048    1.0000 </r>
       <r>  -12.4892    1.0000 </r>
       <r>   -9.0681    1.0000 </r>
       <r>   -8.9617    1.0000 </r>
       <r>   -7.8858    1.0000 </r>
       <r>   -3.7564    1.0000 </r>
       <r>   -1.7934    0.0000 </r>
       <r>    2.0224    0.0000 </r>
       <r>    2.8275    0.0000 </r>
       <r>    3.1725    0.0000 </r>
       <r>    4.0748    0.0000 </r>
       <r>    4.5459    0.0000 </r>
       <r>    5.5015    0.0000 </r>
       <r>    6.1900    0.0000 </r>
       <r>    6.4612    0.0000 </r>
       <r>    6.8772    0.0000 </r>
       <r>    8.1746    0.0000 </r>
       <r>    8.1836    0.0000 </r>
       <r>    9.1076    0.0000 </r>
       <r>    9.3854    0.0000 </r>
       <r>    9.5805    0.0000 </r>
       <r>    9.9065    0.0000 </r>
       <r>    9.9516    0.0000 </r>
       <r>   10.9587    0.0000 </r>
       <r>   11.3733    0.0000 </r>
       <r>   11.3949    0.0000 </r>
       <r>   11.4999    0.0000 </r>
       <r>   12.2594    0.0000 </r>
       <r>   12.3884    0.0000 </r>
       <r>   12.5752    0.0000 </r>
      </set>
      <set comment="kpoint 8">
       <r>  -20.8119    1.0000 </r>
       <r>  -17.9867    1.0000 </r>
       <r>  -13.2787    1.0000 </r>
       <r>  -11.7003    1.0000 </r>
       <r>  -10.1723    1.0000 </r>
       <r>   -8.6442    1.0000 </r>
       <r>   -7.7832    1.0000 </r>
       <r>   -5.4819    1.0000 </r>
       <r>    0.0830    0.0000 </r>
       <r>    2.5222    0.0000 </r>
       <r>    3.3212    0.0000 </r>
       <r>    3.6869    0.0000 </r>
       <r>    4.4537    0.0000 </r>
       <r>    4.6812    0.0000 </r>
       <r>    5.0303    0.0000 </r>
       <r>    5.3619    0.0000 </r>
       <r>    6.4945    0.0000 </r>
       <r>    6.7037    0.0000 </r>
       <r>    7.1643    0.0000 </r>
       <r>    7.3410    0.0000 </r>
       <r>    7.8038    0.0000 </r>
       <r>    8.4588    0.0000 </r>
       <r>    9.0909    0.0000 </r>
       <r>    9.5522    0.0000 </r>
       <r>    9.6060    0.0000 </r>
       <r>    9.8816    0.0000 </r>
       <r>    9.9204    0.0000 </r>
       <r>   10.4476    0.0000 </r>
       <r>   10.7421    0.0000 </r>
       <r>   11.3490    0.0000 </r>
       <r>   11.4276    0.0000 </r>
       <r>   12.4568    0.0000 </r>
      </set>
      <set comment="kpoint 9">
       <r>  -19.7307    1.0000 </r>
       <r>  -19.7307    1.0000 </r>
       <r>  -11.7624    1.0000 </r>
       <r>  -11.7624    1.0000 </r>
       <r>   -9.3987    1.0000 </r>
       <r>   -9.3987    1.0000 </r>
       <r>   -7.4040    1.0000 </r>
       <r>   -7.4040    1.0000 </r>
       <r>    2.4727    0.0000 </r>
       <r>    2.4727    0.0000 </r>
       <r>    4.0237    0.0000 </r>
       <r>    4.0237    0.0000 </r>
       <r>    4.8473    0.0000 </r>
       <r>    4.8473    0.0000 </r>
       <r>    5.2316    0.0000 </r>
       <r>    5.2316    0.0000 </r>
       <r>    6.1003    0.0000 </r>
       <r>    6.1003    0.0000 </r>
       <r>    6.5000    0.0000 </r>
       <r>    6.5000    0.0000 </r>
       <r>    6.6832    0.0000 </r>
       <r>    6.6832    0.0000 </r>
       <r>    8.1629    0.0000 </r>
       <r>    8.1629    0.0000 </r>
       <r>    8.8497    0.0000 </r>
       <r>    8.8497    0.0000 </r>
       <r>   10.5608    0.0000 </r>
       <r>   10.5608    0.0000 </r>
       <r>   10.9128    0.0000 </r>
       <r>   10.9128    0.0000 </r>
       <r>   11.9499    0.0000 </r>
       <r>   11.9499    0.0000 </r>
      </set>
      <set comment="kpoint 10">
       <r>  -19.8228    1.0000 </r>
       <r>  -15.9038    1.0000 </r>
       <r>  -14.8936    1.0000 </r>
       <r>  -13.1350    1.0000 </r>
       <r>  -11.2482    1.0000 </r>
       <r>   -9.8178    1.0000 </r>
       <r>   -7.5029    1.0000 </r>
       <r>   -3.3676    1.0000 </r>
       <r>   -2.1195    0.0000 </r>
       <r>    2.7267    0.0000 </r>
       <r>    3.8968    0.0000 </r>
       <r>    4.7057    0.0000 </r>
       <r>    5.1001    0.0000 </r>
       <r>    5.9632    0.0000 </r>
       <r>    6.4508    0.0000 </r>
       <r>    7.7962    0.0000 </r>
       <r>    7.9382    0.0000 </r>
       <r>    8.0227    0.0000 </r>
       <r>    8.7412    0.0000 </r>
       <r>    9.1551    0.0000 </r>
       <r>    9.5326    0.0000 </r>
       <r>   10.3239    0.0000 </r>
       <r>   10.7291    0.0000 </r>
       <r>   10.7568    0.0000 </r>
       <r>   11.0855    0.0000 </r>
       <r>   11.2518    0.0000 </r>
       <r>   11.8200    0.0000 </r>
       <r>   12.2130    0.0000 </r>
       <r>   12.3537    0.0000 </r>
       <r>   12.8575    0.0000 </r>
       <r>   12.9924    0.0000 </r>
       <r>   13.1247    0.0000 </r>
      </set>
      <set comment="kpoint 11">
       <r>  -19.4653    1.0000 </r>
       <r>  -16.8098    1.0000 </r>
       <r>  -15.1521    1.0000 </r>
       <r>  -12.6160    1.0000 </r>
       <r>  -11.3254    1.0000 </r>
       <r>   -8.8916    1.0000 </r>
       <r>   -7.1234    1.0000 </r>
       <r>   -4.5163    1.0000 </r>
       <r>   -1.1838    0.0000 </r>
       <r>    1.8479    0.0000 </r>
       <r>    4.3857    0.0000 </r>
       <r>    5.2389    0.0000 </r>
       <r>    5.3746    0.0000 </r>
       <r>    5.6225    0.0000 </r>
       <r>    6.4887    0.0000 </r>
       <r>    6.9734    0.0000 </r>
       <r>    7.7873    0.0000 </r>
       <r>    8.3117    0.0000 </r>
       <r>    8.5252    0.0000 </r>
       <r>    8.5543    0.0000 </r>
       <r>    9.2225    0.0000 </r>
       <r>    9.7252    0.0000 </r>
       <r>    9.8949    0.0000 </r>
       <r>   10.0634    0.0000 </r>
       <r>   10.8015    0.0000 </r>
       <r>   10.9947    0.0000 </r>
       <r>   11.3220    0.0000 </r>
       <r>   11.7542    0.0000 </r>
       <r>   11.7927    0.0000 </r>
       <r>   12.2401    0.0000 </r>
       <r>   12.4138    0.0000 </r>
       <r>   12.6512    0.0000 </r>
      </set>
      <set comment="kpoint 12">
       <r>  -18.4162    1.0000 </r>
       <r>  -18.4162    1.0000 </r>
       <r>  -14.1845    1.0000 </r>
       <r>  -14.1845    1.0000 </r>
       <r>   -9.2500    1.0000 </r>
       <r>   -9.2500    1.0000 </r>
       <r>   -6.0465    1.0000 </r>
       <r>   -6.0465    1.0000 </r>
       <r>    0.2530    0.0000 </r>
       <r>    0.2530    0.0000 </r>
       <r>    5.1721    0.0000 </r>
       <r>    5.1721    0.0000 </r>
       <r>    5.9068    0.0000 </r>
       <r>    5.9068    0.0000 </r>
       <r>    6.7367    0.0000 </r>
       <r>    6.7367    0.0000 </r>
       <r>    7.1604    0.0000 </r>
       <r>    7.1604    0.0000 </r>
       <r>    7.9977    0.0000 </r>
       <r>    7.9977    0.0000 </r>
       <r>    8.4934    0.0000 </r>
       <r>    8.4934    0.0000 </r>
       <r>    9.9935    0.0000 </r>
       <r>    9.9935    0.0000 </r>
       <r>   10.7190    0.0000 </r>
       <r>   10.7190    0.0000 </r>
       <r>   11.4552    0.0000 </r>
       <r>   11.4552    0.0000 </r>
       <r>   12.0512    0.0000 </r>
       <r>   12.0512    0.0000 </r>
       <r>   12.9759    0.0000 </r>
       <r>   12.9759    0.0000 </r>
      </set>
      <set comment="kpoint 13">
       <r>  -17.9927    1.0000 </r>
       <r>  -17.9927    1.0000 </r>
       <r>  -13.2698    1.0000 </r>
       <r>  -13.2698    1.0000 </r>
       <r>  -11.7037    1.0000 </r>
       <r>  -11.7037    1.0000 </r>
       <r>   -5.4888    1.0000 </r>
       <r>   -5.4888    1.0000 </r>
       <r>    0.0886    0.0000 </r>
       <r>    0.0886    0.0000 </r>
       <r>    6.4864    0.0000 </r>
       <r>    6.4864    0.0000 </r>
       <r>    7.1572    0.0000 </r>
       <r>    7.1572    0.0000 </r>
       <r>    7.7959    0.0000 </r>
       <r>    7.7959    0.0000 </r>
       <r>    8.4517    0.0000 </r>
       <r>    8.4517    0.0000 </r>
       <r>    9.0831    0.0000 </r>
       <r>    9.0831    0.0000 </r>
       <r>    9.5594    0.0000 </r>
       <r>    9.5594    0.0000 </r>
       <r>    9.8769    0.0000 </r>
       <r>    9.8769    0.0000 </r>
       <r>    9.9489    0.0000 </r>
       <r>    9.9489    0.0000 </r>
       <r>   11.3417    0.0000 </r>
       <r>   11.3417    0.0000 </r>
       <r>   11.4226    0.0000 </r>
       <r>   11.4226    0.0000 </r>
       <r>   13.9767    0.0000 </r>
       <r>   13.9767    0.0000 </r>
      </set>
      <set comment="kpoint 14">
       <r>  -17.6650    1.0000 </r>
       <r>  -17.6650    1.0000 </r>
       <r>  -14.7594    1.0000 </r>
       <r>  -14.7594    1.0000 </r>
       <r>  -10.1698    1.0000 </r>
       <r>  -10.1698    1.0000 </r>
       <r>   -5.3144    1.0000 </r>
       <r>   -5.3144    1.0000 </r>
       <r>   -0.4987    0.0000 </r>
       <r>   -0.4987    0.0000 </r>
       <r>    6.2464    0.0000 </r>
       <r>    6.2464    0.0000 </r>
       <r>    6.9991    0.0000 </r>
       <r>    6.9991    0.0000 </r>
       <r>    7.7699    0.0000 </r>
       <r>    7.7699    0.0000 </r>
       <r>    8.3122    0.0000 </r>
       <r>    8.3122    0.0000 </r>
       <r>    9.0453    0.0000 </r>
       <r>    9.0453    0.0000 </r>
       <r>    9.6211    0.0000 </r>
       <r>    9.6211    0.0000 </r>
       <r>   10.5709    0.0000 </r>
       <r>   10.5709    0.0000 </r>
       <r>   10.6603    0.0000 </r>
       <r>   10.6603    0.0000 </r>
       <r>   11.5916    0.0000 </r>
       <r>   11.5916    0.0000 </r>
       <r>   11.8222    0.0000 </r>
       <r>   11.8222    0.0000 </r>
       <r>   12.4019    0.0000 </r>
       <r>   12.4019    0.0000 </r>
      </set>
      <set comment="kpoint 15">
       <r>  -17.0320    1.0000 </r>
       <r>  -17.0320    1.0000 </r>
       <r>  -15.9873    1.0000 </r>
       <r>  -15.9873    1.0000 </r>
       <r>   -9.1525    1.0000 </r>
       <r>   -9.1525    1.0000 </r>
       <r>   -5.1091    1.0000 </r>
       <r>   -5.1091    1.0000 </r>
       <r>   -1.0564    0.0000 </r>
       <r>   -1.0564    0.0000 </r>
       <r>    4.6650    0.0000 </r>
       <r>    4.6650    0.0000 </r>
       <r>    8.3796    0.0000 </r>
       <r>    8.3796    0.0000 </r>
       <r>    8.5340    0.0000 </r>
       <r>    8.5340    0.0000 </r>
       <r>    9.2256    0.0000 </r>
       <r>    9.2256    0.0000 </r>
       <r>    9.4225    0.0000 </r>
       <r>    9.4225    0.0000 </r>
       <r>    9.8510    0.0000 </r>
       <r>    9.8510    0.0000 </r>
       <r>    9.8586    0.0000 </r>
       <r>    9.8586    0.0000 </r>
       <r>   10.5404    0.0000 </r>
       <r>   10.5404    0.0000 </r>
       <r>   10.7151    0.0000 </r>
       <r>   10.7151    0.0000 </r>
       <r>   11.1184    0.0000 </r>
       <r>   11.1184    0.0000 </r>
       <r>   11.1534    0.0000 </r>
       <r>   11.1534    0.0000 </r>
      </set>
     </set>
    </set>
   </array>
  </eigenvalues>
  <separator name="orbital magnetization" >
   <v name="MAGDIPOLOUT">      0.00000000      0.00000000      0.00000000</v>
  </separator>
  <dos>
   <i name="efermi">     -3.36278760 </i>
   <total>
    <array>
     <dimension dim="1">gridpoints</dimension>
     <dimension dim="2">spin</dimension>
     <field>energy</field>
     <field>total</field>
     <field>integrated</field>
     <set>
      <set comment="spin 1">
       <r>   -15.0000     1.1232     4.4117 </r>
       <r>   -14.9933     1.1287     4.4192 </r>
       <r>   -14.9867     1.1342     4.4267 </r>
       <r>   -14.9800     1.1397     4.4343 </r>
       <r>   -14.9733     1.1452     4.4419 </r>
       <r>   -14.9667     1.1507     4.4496 </r>
       <r>   -14.9600     1.1563     4.4573 </r>
       <r>   -14.9533     1.1618     4.4650 </r>
       <r>   -14.9466     1.1673     4.4728 </r>
       <r>   -14.9400     1.1728     4.4806 </r>
       <r>   -14.9333     1.1783     4.4884 </r>
       <r>   -14.9266     1.1838     4.4963 </r>
       <r>   -14.9200     1.1893     4.5042 </r>
       <r>   -14.9133     1.1948     4.5122 </r>
       <r>   -14.9066     1.2003     4.5201 </r>
       <r>   -14.9000     1.2058     4.5282 </r>
       <r>   -14.8933     1.2106     4.5362 </r>
       <r>   -14.8866     1.2006     4.5443 </r>
       <r>   -14.8800     1.1906     4.5522 </r>
       <r>   -14.8733     1.1806     4.5601 </r>
       <r>   -14.8666     1.1707     4.5680 </r>
       <r>   -14.8600     1.1607     4.5758 </r>
       <r>   -14.8533     1.1507     4.5835 </r>
       <r>   -14.8466     1.1408     4.5911 </r>
       <r>   -14.8399     1.1308     4.5987 </r>
       <r>   -14.8333     1.1208     4.6062 </r>
       <r>   -14.8266     1.1108     4.6136 </r>
       <r>   -14.8199     1.1009     4.6210 </r>
       <r>   -14.8133     1.0909     4.6283 </r>
       <r>   -14.8066     1.0809     4.6356 </r>
       <r>   -14.7999     1.0709     4.6427 </r>
       <r>   -14.7933     1.0610     4.6498 </r>
       <r>   -14.7866     1.0510     4.6569 </r>
       <r>   -14.7799     1.0410     4.6639 </r>
       <r>   -14.7733     1.0311     4.6708 </r>
       <r>   -14.7666     1.0211     4.6776 </r>
       <r>   -14.7599     1.0111     4.6844 </r>
       <r>   -14.7533     1.0077     4.6911 </r>
       <r>   -14.7466     1.0048     4.6978 </r>
       <r>   -14.7399     1.0019     4.7045 </r>
       <r>   -14.7332     0.9991     4.7112 </r>
       <r>   -14.7266     0.9962     4.7178 </r>
       <r>   -14.7199     0.9933     4.7245 </r>
       <r>   -14.7132     0.9904     4.7311 </r>
       <r>   -14.7066     0.9876     4.7377 </r>
       <r>   -14.6999     0.9847     4.7443 </r>
       <r>   -14.6932     0.9818     4.7508 </r>
       <r>   -14.6866     0.9789     4.7574 </r>
       <r>   -14.6799     0.9761     4.7639 </r>
       <r>   -14.6732     0.9732     4.7704 </r>
       <r>   -14.6666     0.9703     4.7769 </r>
       <r>   -14.6599     0.9674     4.7833 </r>
       <r>   -14.6532     0.9646     4.7898 </r>
       <r>   -14.6465     0.9617     4.7962 </r>
       <r>   -14.6399     0.9588     4.8026 </r>
       <r>   -14.6332     0.9560     4.8090 </r>
       <r>   -14.6265     0.9531     4.8153 </r>
       <r>   -14.6199     0.9502     4.8217 </r>
       <r>   -14.6132     0.9473     4.8280 </r>
       <r>   -14.6065     0.9445     4.8343 </r>
       <r>   -14.5999     0.9416     4.8406 </r>
       <r>   -14.5932     0.9387     4.8469 </r>
       <r>   -14.5865     0.9358     4.8531 </r>
       <r>   -14.5799     0.9330     4.8594 </r>
       <r>   -14.5732     0.9301     4.8656 </r>
       <r>   -14.5665     0.9272     4.8718 </r>
       <r>   -14.5599     0.9243     4.8779 </r>
       <r>   -14.5532     0.9215     4.8841 </r>
       <r>   -14.5465     0.9186     4.8902 </r>
       <r>   -14.5398     0.9157     4.8963 </r>
       <r>   -14.5332     0.9129     4.9024 </r>
       <r>   -14.5265     0.9100     4.9085 </r>
       <r>   -14.5198     0.9071     4.9146 </r>
       <r>   -14.5132     0.9042     4.9206 </r>
       <r>   -14.5065     0.9014     4.9266 </r>
       <r>   -14.4998     0.8985     4.9326 </r>
       <r>   -14.4932     0.8956     4.9386 </r>
       <r>   -14.4865     0.8927     4.9446 </r>
       <r>   -14.4798     0.8899     4.9505 </r>
       <r>   -14.4732     0.8870     4.9565 </r>
       <r>   -14.4665     0.8841     4.9624 </r>
       <r>   -14.4598     0.8812     4.9682 </r>
       <r>   -14.4532     0.8784     4.9741 </r>
       <r>   -14.4465     0.8755     4.9800 </r>
       <r>   -14.4398     0.8726     4.9858 </r>
       <r>   -14.4331     0.8698     4.9916 </r>
       <r>   -14.4265     0.8669     4.9974 </r>
       <r>   -14.4198     0.8640     5.0032 </r>
       <r>   -14.4131     0.8611     5.0089 </r>
       <r>   -14.4065     0.8583     5.0147 </r>
       <r>   -14.3998     0.8554     5.0204 </r>
       <r>   -14.3931     0.8525     5.0261 </r>
       <r>   -14.3865     0.8496     5.0317 </r>
       <r>   -14.3798     0.8468     5.0374 </r>
       <r>   -14.3731     0.8439     5.0430 </r>
       <r>   -14.3665     0.8410     5.0486 </r>
       <r>   -14.3598     0.8381     5.0542 </r>
       <r>   -14.3531     0.8353     5.0598 </r>
       <r>   -14.3464     0.8324     5.0654 </r>
       <r>   -14.3398     0.8295     5.0709 </r>
       <r>   -14.3331     0.8267     5.0765 </r>
       <r>   -14.3264     0.8238     5.0820 </r>
       <r>   -14.3198     0.8209     5.0874 </r>
       <r>   -14.3131     0.8180     5.0929 </r>
       <r>   -14.3064     0.8152     5.0984 </r>
       <r>   -14.2998     0.8123     5.1038 </r>
       <r>   -14.2931     0.8094     5.1092 </r>
       <r>   -14.2864     0.8065     5.1146 </r>
       <r>   -14.2798     0.8037     5.1199 </r>
       <r>   -14.2731     0.8008     5.1253 </r>
       <r>   -14.2664     0.7979     5.1306 </r>
       <r>   -14.2598     0.7950     5.1359 </r>
       <r>   -14.2531     0.7922     5.1412 </r>
       <r>   -14.2464     0.7893     5.1465 </r>
       <r>   -14.2397     0.7864     5.1518 </r>
       <r>   -14.2331     0.7835     5.1570 </r>
       <r>   -14.2264     0.7807     5.1622 </r>
       <r>   -14.2197     0.7778     5.1674 </r>
       <r>   -14.2131     0.7749     5.1726 </r>
       <r>   -14.2064     0.7721     5.1777 </r>
       <r>   -14.1997     0.7692     5.1829 </r>
       <r>   -14.1931     0.7663     5.1880 </r>
       <r>   -14.1864     0.7634     5.1931 </r>
       <r>   -14.1797     0.7620     5.1982 </r>
       <r>   -14.1731     0.7611     5.2033 </r>
       <r>   -14.1664     0.7603     5.2083 </r>
       <r>   -14.1597     0.7594     5.2134 </r>
       <r>   -14.1531     0.7585     5.2185 </r>
       <r>   -14.1464     0.7577     5.2235 </r>
       <r>   -14.1397     0.7568     5.2286 </r>
       <r>   -14.1330     0.7559     5.2336 </r>
       <r>   -14.1264     0.7551     5.2387 </r>
       <r>   -14.1197     0.7542     5.2437 </r>
       <r>   -14.1130     0.7534     5.2487 </r>
       <r>   -14.1064     0.7525     5.2537 </r>
       <r>   -14.0997     0.7516     5.2587 </r>
       <r>   -14.0930     0.7508     5.2638 </r>
       <r>   -14.0864     0.7499     5.2688 </r>
       <r>   -14.0797     0.7490     5.2738 </r>
       <r>   -14.0730     0.7482     5.2788 </r>
       <r>   -14.0664     0.7473     5.2837 </r>
       <r>   -14.0597     0.7465     5.2887 </r>
       <r>   -14.0530     0.7456     5.2937 </r>
       <r>   -14.0463     0.7447     5.2987 </r>
       <r>   -14.0397     0.7439     5.3036 </r>
       <r>   -14.0330     0.7430     5.3086 </r>
       <r>   -14.0263     0.7421     5.3135 </r>
       <r>   -14.0197     0.7413     5.3185 </r>
       <r>   -14.0130     0.7404     5.3234 </r>
       <r>   -14.0063     0.7396     5.3284 </r>
       <r>   -13.9997     0.7387     5.3333 </r>
       <r>   -13.9930     0.7378     5.3382 </r>
       <r>   -13.9863     0.7370     5.3431 </r>
       <r>   -13.9797     0.7361     5.3480 </r>
       <r>   -13.9730     0.7352     5.3529 </r>
       <r>   -13.9663     0.7344     5.3578 </r>
       <r>   -13.9597     0.7335     5.3627 </r>
       <r>   -13.9530     0.7327     5.3676 </r>
       <r>   -13.9463     0.7318     5.3725 </r>
       <r>   -13.9396     0.7309     5.3774 </r>
       <r>   -13.9330     0.7301     5.3823 </r>
       <r>   -13.9263     0.7292     5.3871 </r>
       <r>   -13.9196     0.7283     5.3920 </r>
       <r>   -13.9130     0.7275     5.3968 </r>
       <r>   -13.9063     0.7266     5.4017 </r>
       <r>   -13.8996     0.7257     5.4065 </r>
       <r>   -13.8930     0.7249     5.4114 </r>
       <r>   -13.8863     0.7240     5.4162 </r>
       <r>   -13.8796     0.7232     5.4210 </r>
       <r>   -13.8730     0.7223     5.4258 </r>
       <r>   -13.8663     0.7214     5.4307 </r>
       <r>   -13.8596     0.7206     5.4355 </r>
       <r>   -13.8530     0.7197     5.4403 </r>
       <r>   -13.8463     0.7188     5.4451 </r>
       <r>   -13.8396     0.7180     5.4499 </r>
       <r>   -13.8329     0.7171     5.4546 </r>
       <r>   -13.8263     0.7163     5.4594 </r>
       <r>   -13.8196     0.7154     5.4642 </r>
       <r>   -13.8129     0.7145     5.4690 </r>
       <r>   -13.8063     0.7137     5.4737 </r>
       <r>   -13.7996     0.7128     5.4785 </r>
       <r>   -13.7929     0.7119     5.4832 </r>
       <r>   -13.7863     0.7111     5.4880 </r>
       <r>   -13.7796     0.7102     5.4927 </r>
       <r>   -13.7729     0.7094     5.4975 </r>
       <r>   -13.7663     0.7085     5.5022 </r>
       <r>   -13.7596     0.7076     5.5069 </r>
       <r>   -13.7529     0.7068     5.5116 </r>
       <r>   -13.7462     0.7059     5.5163 </r>
       <r>   -13.7396     0.7050     5.5210 </r>
       <r>   -13.7329     0.7042     5.5257 </r>
       <r>   -13.7262     0.7033     5.5304 </r>
       <r>   -13.7196     0.7025     5.5351 </r>
       <r>   -13.7129     0.7016     5.5398 </r>
       <r>   -13.7062     0.7007     5.5445 </r>
       <r>   -13.6996     0.6999     5.5491 </r>
       <r>   -13.6929     0.6990     5.5538 </r>
       <r>   -13.6862     0.6981     5.5585 </r>
       <r>   -13.6796     0.6973     5.5631 </r>
       <r>   -13.6729     0.6964     5.5678 </r>
       <r>   -13.6662     0.6956     5.5724 </r>
       <r>   -13.6596     0.6947     5.5770 </r>
       <r>   -13.6529     0.6938     5.5817 </r>
       <r>   -13.6462     0.6930     5.5863 </r>
       <r>   -13.6395     0.6921     5.5909 </r>
       <r>   -13.6329     0.6912     5.5955 </r>
       <r>   -13.6262     0.6904     5.6001 </r>
       <r>   -13.6195     0.6895     5.6047 </r>
       <r>   -13.6129     0.6886     5.6093 </r>
       <r>   -13.6062     0.6878     5.6139 </r>
       <r>   -13.5995     0.6869     5.6185 </r>
       <r>   -13.5929     0.6861     5.6231 </r>
       <r>   -13.5862     0.6852     5.6277 </r>
       <r>   -13.5795     0.6843     5.6322 </r>
       <r>   -13.5729     0.6835     5.6368 </r>
       <r>   -13.5662     0.6826     5.6413 </r>
       <r>   -13.5595     0.6817     5.6459 </r>
       <r>   -13.5529     0.6809     5.6504 </r>
       <r>   -13.5462     0.6800     5.6550 </r>
       <r>   -13.5395     0.6792     5.6595 </r>
       <r>   -13.5328     0.6783     5.6640 </r>
       <r>   -13.5262     0.6774     5.6685 </r>
       <r>   -13.5195     0.6766     5.6731 </r>
       <r>   -13.5128     0.6757     5.6776 </r>
       <r>   -13.5062     0.6748     5.6821 </r>
       <r>   -13.4995     0.6740     5.6866 </r>
       <r>   -13.4928     0.6731     5.6911 </r>
       <r>   -13.4862     0.6723     5.6956 </r>
       <r>   -13.4795     0.6714     5.7000 </r>
       <r>   -13.4728     0.6705     5.7045 </r>
       <r>   -13.4662     0.6697     5.7090 </r>
       <r>   -13.4595     0.6688     5.7134 </r>
       <r>   -13.4528     0.6679     5.7179 </r>
       <r>   -13.4461     0.6667     5.7223 </r>
       <r>   -13.4395     0.6649     5.7268 </r>
       <r>   -13.4328     0.6632     5.7312 </r>
       <r>   -13.4261     0.6615     5.7356 </r>
       <r>   -13.4195     0.6597     5.7400 </r>
       <r>   -13.4128     0.6580     5.7444 </r>
       <r>   -13.4061     0.6563     5.7488 </r>
       <r>   -13.3995     0.6545     5.7532 </r>
       <r>   -13.3928     0.6528     5.7575 </r>
       <r>   -13.3861     0.6510     5.7619 </r>
       <r>   -13.3795     0.6493     5.7662 </r>
       <r>   -13.3728     0.6476     5.7706 </r>
       <r>   -13.3661     0.6458     5.7749 </r>
       <r>   -13.3595     0.6441     5.7792 </r>
       <r>   -13.3528     0.6423     5.7835 </r>
       <r>   -13.3461     0.6406     5.7877 </r>
       <r>   -13.3394     0.6389     5.7920 </r>
       <r>   -13.3328     0.6371     5.7963 </r>
       <r>   -13.3261     0.6354     5.8005 </r>
       <r>   -13.3194     0.6336     5.8047 </r>
       <r>   -13.3128     0.6319     5.8089 </r>
       <r>   -13.3061     0.6302     5.8132 </r>
       <r>   -13.2994     0.6284     5.8174 </r>
       <r>   -13.2928     0.6267     5.8215 </r>
       <r>   -13.2861     0.6289     5.8257 </r>
       <r>   -13.2794     0.6321     5.8299 </r>
       <r>   -13.2728     0.6319     5.8341 </r>
       <r>   -13.2661     0.6343     5.8384 </r>
       <r>   -13.2594     0.6391     5.8426 </r>
       <r>   -13.2528     0.6439     5.8469 </r>
       <r>   -13.2461     0.6486     5.8512 </r>
       <r>   -13.2394     0.6534     5.8555 </r>
       <r>   -13.2327     0.6582     5.8599 </r>
       <r>   -13.2261     0.6629     5.8643 </r>
       <r>   -13.2194     0.6677     5.8688 </r>
       <r>   -13.2127     0.6725     5.8732 </r>
       <r>   -13.2061     0.6773     5.8777 </r>
       <r>   -13.1994     0.6820     5.8823 </r>
       <r>   -13.1927     0.6868     5.8868 </r>
       <r>   -13.1861     0.6916     5.8914 </r>
       <r>   -13.1794     0.6963     5.8960 </r>
       <r>   -13.1727     0.7011     5.9007 </r>
       <r>   -13.1661     0.7059     5.9054 </r>
       <r>   -13.1594     0.7106     5.9101 </r>
       <r>   -13.1527     0.7154     5.9149 </r>
       <r>   -13.1460     0.7202     5.9197 </r>
       <r>   -13.1394     0.7249     5.9245 </r>
       <r>   -13.1327     0.7281     5.9293 </r>
       <r>   -13.1260     0.7283     5.9342 </r>
       <r>   -13.1194     0.7284     5.9390 </r>
       <r>   -13.1127     0.7286     5.9439 </r>
       <r>   -13.1060     0.7288     5.9488 </r>
       <r>   -13.0994     0.7290     5.9536 </r>
       <r>   -13.0927     0.7292     5.9585 </r>
       <r>   -13.0860     0.7293     5.9633 </r>
       <r>   -13.0794     0.7295     5.9682 </r>
       <r>   -13.0727     0.7297     5.9731 </r>
       <r>   -13.0660     0.7299     5.9779 </r>
       <r>   -13.0594     0.7300     5.9828 </r>
       <r>   -13.0527     0.7302     5.9877 </r>
       <r>   -13.0460     0.7304     5.9925 </r>
       <r>   -13.0393     0.7306     5.9974 </r>
       <r>   -13.0327     0.7308     6.0023 </r>
       <r>   -13.0260     0.7309     6.0072 </r>
       <r>   -13.0193     0.7311     6.0120 </r>
       <r>   -13.0127     0.7313     6.0169 </r>
       <r>   -13.0060     0.7315     6.0218 </r>
       <r>   -12.9993     0.7316     6.0267 </r>
       <r>   -12.9927     0.7318     6.0316 </r>
       <r>   -12.9860     0.7320     6.0364 </r>
       <r>   -12.9793     0.7322     6.0413 </r>
       <r>   -12.9727     0.7323     6.0462 </r>
       <r>   -12.9660     0.7325     6.0511 </r>
       <r>   -12.9593     0.7327     6.0560 </r>
       <r>   -12.9527     0.7329     6.0609 </r>
       <r>   -12.9460     0.7331     6.0657 </r>
       <r>   -12.9393     0.7332     6.0706 </r>
       <r>   -12.9326     0.7334     6.0755 </r>
       <r>   -12.9260     0.7336     6.0804 </r>
       <r>   -12.9193     0.7338     6.0853 </r>
       <r>   -12.9126     0.7339     6.0902 </r>
       <r>   -12.9060     0.7341     6.0951 </r>
       <r>   -12.8993     0.7343     6.1000 </r>
       <r>   -12.8926     0.7345     6.1049 </r>
       <r>   -12.8860     0.7347     6.1098 </r>
       <r>   -12.8793     0.7348     6.1147 </r>
       <r>   -12.8726     0.7350     6.1196 </r>
       <r>   -12.8660     0.7352     6.1245 </r>
       <r>   -12.8593     0.7354     6.1294 </r>
       <r>   -12.8526     0.7355     6.1343 </r>
       <r>   -12.8459     0.7357     6.1392 </r>
       <r>   -12.8393     0.7359     6.1441 </r>
       <r>   -12.8326     0.7361     6.1490 </r>
       <r>   -12.8259     0.7362     6.1539 </r>
       <r>   -12.8193     0.7364     6.1588 </r>
       <r>   -12.8126     0.7366     6.1638 </r>
       <r>   -12.8059     0.7368     6.1687 </r>
       <r>   -12.7993     0.7370     6.1736 </r>
       <r>   -12.7926     0.7371     6.1785 </r>
       <r>   -12.7859     0.7373     6.1834 </r>
       <r>   -12.7793     0.7375     6.1883 </r>
       <r>   -12.7726     0.7377     6.1932 </r>
       <r>   -12.7659     0.7378     6.1982 </r>
       <r>   -12.7593     0.7380     6.2031 </r>
       <r>   -12.7526     0.7382     6.2080 </r>
       <r>   -12.7459     0.7384     6.2129 </r>
       <r>   -12.7392     0.7386     6.2179 </r>
       <r>   -12.7326     0.7387     6.2228 </r>
       <r>   -12.7259     0.7389     6.2277 </r>
       <r>   -12.7192     0.7391     6.2326 </r>
       <r>   -12.7126     0.7393     6.2376 </r>
       <r>   -12.7059     0.7394     6.2425 </r>
       <r>   -12.6992     0.7396     6.2474 </r>
       <r>   -12.6926     0.7398     6.2524 </r>
       <r>   -12.6859     0.7400     6.2573 </r>
       <r>   -12.6792     0.7401     6.2622 </r>
       <r>   -12.6726     0.7403     6.2672 </r>
       <r>   -12.6659     0.7405     6.2721 </r>
       <r>   -12.6592     0.7407     6.2771 </r>
       <r>   -12.6526     0.7409     6.2820 </r>
       <r>   -12.6459     0.7410     6.2869 </r>
       <r>   -12.6392     0.7412     6.2919 </r>
       <r>   -12.6325     0.7414     6.2968 </r>
       <r>   -12.6259     0.7416     6.3018 </r>
       <r>   -12.6192     0.7417     6.3067 </r>
       <r>   -12.6125     0.7403     6.3117 </r>
       <r>   -12.6059     0.7374     6.3166 </r>
       <r>   -12.5992     0.7346     6.3215 </r>
       <r>   -12.5925     0.7317     6.3264 </r>
       <r>   -12.5859     0.7288     6.3312 </r>
       <r>   -12.5792     0.7259     6.3361 </r>
       <r>   -12.5725     0.7230     6.3409 </r>
       <r>   -12.5659     0.7202     6.3457 </r>
       <r>   -12.5592     0.7173     6.3505 </r>
       <r>   -12.5525     0.7144     6.3553 </r>
       <r>   -12.5458     0.7115     6.3601 </r>
       <r>   -12.5392     0.7086     6.3648 </r>
       <r>   -12.5325     0.7058     6.3695 </r>
       <r>   -12.5258     0.7029     6.3742 </r>
       <r>   -12.5192     0.7000     6.3789 </r>
       <r>   -12.5125     0.6971     6.3835 </r>
       <r>   -12.5058     0.6942     6.3882 </r>
       <r>   -12.4992     0.6914     6.3928 </r>
       <r>   -12.4925     0.6885     6.3974 </r>
       <r>   -12.4858     0.6862     6.4020 </r>
       <r>   -12.4792     0.6846     6.4066 </r>
       <r>   -12.4725     0.6830     6.4111 </r>
       <r>   -12.4658     0.6813     6.4157 </r>
       <r>   -12.4592     0.6797     6.4202 </r>
       <r>   -12.4525     0.6780     6.4247 </r>
       <r>   -12.4458     0.6764     6.4293 </r>
       <r>   -12.4391     0.6748     6.4338 </r>
       <r>   -12.4325     0.6731     6.4383 </r>
       <r>   -12.4258     0.6715     6.4427 </r>
       <r>   -12.4191     0.6698     6.4472 </r>
       <r>   -12.4125     0.6682     6.4517 </r>
       <r>   -12.4058     0.6666     6.4561 </r>
       <r>   -12.3991     0.6649     6.4606 </r>
       <r>   -12.3925     0.6633     6.4650 </r>
       <r>   -12.3858     0.6616     6.4694 </r>
       <r>   -12.3791     0.6600     6.4738 </r>
       <r>   -12.3725     0.6584     6.4782 </r>
       <r>   -12.3658     0.6567     6.4826 </r>
       <r>   -12.3591     0.6551     6.4870 </r>
       <r>   -12.3525     0.6535     6.4913 </r>
       <r>   -12.3458     0.6518     6.4957 </r>
       <r>   -12.3391     0.6502     6.5000 </r>
       <r>   -12.3324     0.6485     6.5044 </r>
       <r>   -12.3258     0.6469     6.5087 </r>
       <r>   -12.3191     0.6453     6.5130 </r>
       <r>   -12.3124     0.6436     6.5173 </r>
       <r>   -12.3058     0.6420     6.5216 </r>
       <r>   -12.2991     0.6403     6.5258 </r>
       <r>   -12.2924     0.6387     6.5301 </r>
       <r>   -12.2858     0.6371     6.5344 </r>
       <r>   -12.2791     0.6354     6.5386 </r>
       <r>   -12.2724     0.6338     6.5428 </r>
       <r>   -12.2658     0.6321     6.5471 </r>
       <r>   -12.2591     0.6305     6.5513 </r>
       <r>   -12.2524     0.6289     6.5555 </r>
       <r>   -12.2457     0.6272     6.5597 </r>
       <r>   -12.2391     0.6256     6.5638 </r>
       <r>   -12.2324     0.6239     6.5680 </r>
       <r>   -12.2257     0.6223     6.5722 </r>
       <r>   -12.2191     0.6207     6.5763 </r>
       <r>   -12.2124     0.6190     6.5804 </r>
       <r>   -12.2057     0.6174     6.5846 </r>
       <r>   -12.1991     0.6157     6.5887 </r>
       <r>   -12.1924     0.6141     6.5928 </r>
       <r>   -12.1857     0.6125     6.5969 </r>
       <r>   -12.1791     0.6108     6.6009 </r>
       <r>   -12.1724     0.6092     6.6050 </r>
       <r>   -12.1657     0.6075     6.6091 </r>
       <r>   -12.1591     0.6059     6.6131 </r>
       <r>   -12.1524     0.6043     6.6171 </r>
       <r>   -12.1457     0.6026     6.6212 </r>
       <r>   -12.1390     0.6010     6.6252 </r>
       <r>   -12.1324     0.5993     6.6292 </r>
       <r>   -12.1257     0.5977     6.6332 </r>
       <r>   -12.1190     0.5961     6.6372 </r>
       <r>   -12.1124     0.5944     6.6411 </r>
       <r>   -12.1057     0.5928     6.6451 </r>
       <r>   -12.0990     0.5911     6.6490 </r>
       <r>   -12.0924     0.5895     6.6530 </r>
       <r>   -12.0857     0.5879     6.6569 </r>
       <r>   -12.0790     0.5862     6.6608 </r>
       <r>   -12.0724     0.5846     6.6647 </r>
       <r>   -12.0657     0.5829     6.6686 </r>
       <r>   -12.0590     0.5813     6.6725 </r>
       <r>   -12.0524     0.5797     6.6764 </r>
       <r>   -12.0457     0.5780     6.6802 </r>
       <r>   -12.0390     0.5764     6.6841 </r>
       <r>   -12.0323     0.5748     6.6879 </r>
       <r>   -12.0257     0.5731     6.6917 </r>
       <r>   -12.0190     0.5715     6.6956 </r>
       <r>   -12.0123     0.5698     6.6994 </r>
       <r>   -12.0057     0.5682     6.7032 </r>
       <r>   -11.9990     0.5666     6.7069 </r>
       <r>   -11.9923     0.5649     6.7107 </r>
       <r>   -11.9857     0.5633     6.7145 </r>
       <r>   -11.9790     0.5616     6.7182 </r>
       <r>   -11.9723     0.5600     6.7220 </r>
       <r>   -11.9657     0.5584     6.7257 </r>
       <r>   -11.9590     0.5567     6.7294 </r>
       <r>   -11.9523     0.5551     6.7331 </r>
       <r>   -11.9456     0.5534     6.7368 </r>
       <r>   -11.9390     0.5518     6.7405 </r>
       <r>   -11.9323     0.5502     6.7442 </r>
       <r>   -11.9256     0.5485     6.7478 </r>
       <r>   -11.9190     0.5469     6.7515 </r>
       <r>   -11.9123     0.5452     6.7551 </r>
       <r>   -11.9056     0.5436     6.7588 </r>
       <r>   -11.8990     0.5420     6.7624 </r>
       <r>   -11.8923     0.5403     6.7660 </r>
       <r>   -11.8856     0.5387     6.7696 </r>
       <r>   -11.8790     0.5370     6.7732 </r>
       <r>   -11.8723     0.5354     6.7768 </r>
       <r>   -11.8656     0.5338     6.7803 </r>
       <r>   -11.8590     0.5321     6.7839 </r>
       <r>   -11.8523     0.5305     6.7874 </r>
       <r>   -11.8456     0.5288     6.7909 </r>
       <r>   -11.8389     0.5272     6.7945 </r>
       <r>   -11.8323     0.5256     6.7980 </r>
       <r>   -11.8256     0.5239     6.8015 </r>
       <r>   -11.8189     0.5223     6.8050 </r>
       <r>   -11.8123     0.5206     6.8084 </r>
       <r>   -11.8056     0.5190     6.8119 </r>
       <r>   -11.7989     0.5174     6.8154 </r>
       <r>   -11.7923     0.5157     6.8188 </r>
       <r>   -11.7856     0.5141     6.8222 </r>
       <r>   -11.7789     0.5124     6.8257 </r>
       <r>   -11.7723     0.5108     6.8291 </r>
       <r>   -11.7656     0.5092     6.8325 </r>
       <r>   -11.7589     0.5053     6.8359 </r>
       <r>   -11.7523     0.4993     6.8392 </r>
       <r>   -11.7456     0.4934     6.8425 </r>
       <r>   -11.7389     0.4874     6.8458 </r>
       <r>   -11.7322     0.4815     6.8490 </r>
       <r>   -11.7256     0.4755     6.8522 </r>
       <r>   -11.7189     0.4695     6.8554 </r>
       <r>   -11.7122     0.4636     6.8585 </r>
       <r>   -11.7056     0.4576     6.8616 </r>
       <r>   -11.6989     0.4586     6.8646 </r>
       <r>   -11.6922     0.4663     6.8677 </r>
       <r>   -11.6856     0.4739     6.8708 </r>
       <r>   -11.6789     0.4816     6.8740 </r>
       <r>   -11.6722     0.4892     6.8772 </r>
       <r>   -11.6656     0.4969     6.8805 </r>
       <r>   -11.6589     0.5046     6.8839 </r>
       <r>   -11.6522     0.5122     6.8873 </r>
       <r>   -11.6455     0.5199     6.8907 </r>
       <r>   -11.6389     0.5275     6.8942 </r>
       <r>   -11.6322     0.5352     6.8977 </r>
       <r>   -11.6255     0.5429     6.9013 </r>
       <r>   -11.6189     0.5505     6.9050 </r>
       <r>   -11.6122     0.5582     6.9087 </r>
       <r>   -11.6055     0.5658     6.9124 </r>
       <r>   -11.5989     0.5735     6.9162 </r>
       <r>   -11.5922     0.5811     6.9201 </r>
       <r>   -11.5855     0.5888     6.9240 </r>
       <r>   -11.5789     0.5965     6.9279 </r>
       <r>   -11.5722     0.6041     6.9319 </r>
       <r>   -11.5655     0.6118     6.9360 </r>
       <r>   -11.5589     0.6194     6.9401 </r>
       <r>   -11.5522     0.6271     6.9442 </r>
       <r>   -11.5455     0.6348     6.9485 </r>
       <r>   -11.5388     0.6424     6.9527 </r>
       <r>   -11.5322     0.6501     6.9570 </r>
       <r>   -11.5255     0.6577     6.9614 </r>
       <r>   -11.5188     0.6654     6.9658 </r>
       <r>   -11.5122     0.6731     6.9703 </r>
       <r>   -11.5055     0.6807     6.9748 </r>
       <r>   -11.4988     0.6884     6.9793 </r>
       <r>   -11.4922     0.6960     6.9840 </r>
       <r>   -11.4855     0.7037     6.9886 </r>
       <r>   -11.4788     0.7114     6.9933 </r>
       <r>   -11.4722     0.7190     6.9981 </r>
       <r>   -11.4655     0.7267     7.0029 </r>
       <r>   -11.4588     0.7343     7.0078 </r>
       <r>   -11.4522     0.7420     7.0127 </r>
       <r>   -11.4455     0.7496     7.0177 </r>
       <r>   -11.4388     0.7573     7.0227 </r>
       <r>   -11.4321     0.7650     7.0278 </r>
       <r>   -11.4255     0.7726     7.0329 </r>
       <r>   -11.4188     0.7803     7.0381 </r>
       <r>   -11.4121     0.7879     7.0433 </r>
       <r>   -11.4055     0.7956     7.0486 </r>
       <r>   -11.3988     0.8033     7.0539 </r>
       <r>   -11.3921     0.8109     7.0593 </r>
       <r>   -11.3855     0.8186     7.0648 </r>
       <r>   -11.3788     0.8262     7.0702 </r>
       <r>   -11.3721     0.8339     7.0758 </r>
       <r>   -11.3655     0.8416     7.0814 </r>
       <r>   -11.3588     0.8492     7.0870 </r>
       <r>   -11.3521     0.8569     7.0927 </r>
       <r>   -11.3454     0.8645     7.0984 </r>
       <r>   -11.3388     0.8722     7.1042 </r>
       <r>   -11.3321     0.8799     7.1101 </r>
       <r>   -11.3254     0.8875     7.1160 </r>
       <r>   -11.3188     0.8904     7.1219 </r>
       <r>   -11.3121     0.8932     7.1278 </r>
       <r>   -11.3054     0.8960     7.1338 </r>
       <r>   -11.2988     0.8988     7.1398 </r>
       <r>   -11.2921     0.9016     7.1458 </r>
       <r>   -11.2854     0.9044     7.1518 </r>
       <r>   -11.2788     0.9072     7.1579 </r>
       <r>   -11.2721     0.9100     7.1639 </r>
       <r>   -11.2654     0.9129     7.1700 </r>
       <r>   -11.2588     0.9157     7.1761 </r>
       <r>   -11.2521     0.9185     7.1822 </r>
       <r>   -11.2454     0.9202     7.1883 </r>
       <r>   -11.2387     0.9204     7.1945 </r>
       <r>   -11.2321     0.9205     7.2006 </r>
       <r>   -11.2254     0.9207     7.2068 </r>
       <r>   -11.2187     0.9209     7.2129 </r>
       <r>   -11.2121     0.9211     7.2190 </r>
       <r>   -11.2054     0.9212     7.2252 </r>
       <r>   -11.1987     0.9214     7.2313 </r>
       <r>   -11.1921     0.9216     7.2375 </r>
       <r>   -11.1854     0.9218     7.2436 </r>
       <r>   -11.1787     0.9220     7.2498 </r>
       <r>   -11.1721     0.9221     7.2559 </r>
       <r>   -11.1654     0.9223     7.2621 </r>
       <r>   -11.1587     0.9225     7.2682 </r>
       <r>   -11.1521     0.9227     7.2744 </r>
       <r>   -11.1454     0.9228     7.2805 </r>
       <r>   -11.1387     0.9230     7.2867 </r>
       <r>   -11.1320     0.9232     7.2928 </r>
       <r>   -11.1254     0.9234     7.2990 </r>
       <r>   -11.1187     0.9236     7.3051 </r>
       <r>   -11.1120     0.9237     7.3113 </r>
       <r>   -11.1054     0.9239     7.3175 </r>
       <r>   -11.0987     0.9241     7.3236 </r>
       <r>   -11.0920     0.9243     7.3298 </r>
       <r>   -11.0854     0.9244     7.3360 </r>
       <r>   -11.0787     0.9246     7.3421 </r>
       <r>   -11.0720     0.9248     7.3483 </r>
       <r>   -11.0654     0.9250     7.3545 </r>
       <r>   -11.0587     0.9252     7.3606 </r>
       <r>   -11.0520     0.9253     7.3668 </r>
       <r>   -11.0453     0.9255     7.3730 </r>
       <r>   -11.0387     0.9257     7.3791 </r>
       <r>   -11.0320     0.9259     7.3853 </r>
       <r>   -11.0253     0.9260     7.3915 </r>
       <r>   -11.0187     0.9262     7.3977 </r>
       <r>   -11.0120     0.9264     7.4038 </r>
       <r>   -11.0053     0.9266     7.4100 </r>
       <r>   -10.9987     0.9268     7.4162 </r>
       <r>   -10.9920     0.9269     7.4224 </r>
       <r>   -10.9853     0.9271     7.4286 </r>
       <r>   -10.9787     0.9273     7.4347 </r>
       <r>   -10.9720     0.9275     7.4409 </r>
       <r>   -10.9653     0.9276     7.4471 </r>
       <r>   -10.9587     0.9278     7.4533 </r>
       <r>   -10.9520     0.9280     7.4595 </r>
       <r>   -10.9453     0.9282     7.4657 </r>
       <r>   -10.9386     0.9284     7.4719 </r>
       <r>   -10.9320     0.9285     7.4781 </r>
       <r>   -10.9253     0.9287     7.4843 </r>
       <r>   -10.9186     0.9289     7.4905 </r>
       <r>   -10.9120     0.9291     7.4966 </r>
       <r>   -10.9053     0.9292     7.5028 </r>
       <r>   -10.8986     0.9294     7.5090 </r>
       <r>   -10.8920     0.9296     7.5152 </r>
       <r>   -10.8853     0.9298     7.5214 </r>
       <r>   -10.8786     0.9300     7.5276 </r>
       <r>   -10.8720     0.9301     7.5338 </r>
       <r>   -10.8653     0.9303     7.5400 </r>
       <r>   -10.8586     0.9305     7.5463 </r>
       <r>   -10.8520     0.9307     7.5525 </r>
       <r>   -10.8453     0.9308     7.5587 </r>
       <r>   -10.8386     0.9310     7.5649 </r>
       <r>   -10.8319     0.9312     7.5711 </r>
       <r>   -10.8253     0.9314     7.5773 </r>
       <r>   -10.8186     0.9316     7.5835 </r>
       <r>   -10.8119     0.9317     7.5897 </r>
       <r>   -10.8053     0.9319     7.5959 </r>
       <r>   -10.7986     0.9321     7.6021 </r>
       <r>   -10.7919     0.9323     7.6084 </r>
       <r>   -10.7853     0.9324     7.6146 </r>
       <r>   -10.7786     0.9326     7.6208 </r>
       <r>   -10.7719     0.9328     7.6270 </r>
       <r>   -10.7653     0.9330     7.6332 </r>
       <r>   -10.7586     0.9332     7.6395 </r>
       <r>   -10.7519     0.9333     7.6457 </r>
       <r>   -10.7452     0.9335     7.6519 </r>
       <r>   -10.7386     0.9337     7.6581 </r>
       <r>   -10.7319     0.9339     7.6644 </r>
       <r>   -10.7252     0.9340     7.6706 </r>
       <r>   -10.7186     0.9342     7.6768 </r>
       <r>   -10.7119     0.9344     7.6831 </r>
       <r>   -10.7052     0.9346     7.6893 </r>
       <r>   -10.6986     0.9347     7.6955 </r>
       <r>   -10.6919     0.9349     7.7018 </r>
       <r>   -10.6852     0.9351     7.7080 </r>
       <r>   -10.6786     0.9353     7.7142 </r>
       <r>   -10.6719     0.9355     7.7205 </r>
       <r>   -10.6652     0.9356     7.7267 </r>
       <r>   -10.6586     0.9358     7.7329 </r>
       <r>   -10.6519     0.9360     7.7392 </r>
       <r>   -10.6452     0.9362     7.7454 </r>
       <r>   -10.6385     0.9363     7.7517 </r>
[...]
        <r>  0.0003  0.0002  0.0000  0.0000  0.0000  0.0000  0.0000  0.0000  0.0000 </r>
       </set>
       <set comment="band 18">
        <r>  0.0003  0.0002  0.0000  0.0000  0.0000  0.0000  0.0000  0.0000  0.0000 </r>
        <r>  0.0003  0.0002  0.0000  0.0000  0.0000  0.0000  0.0000  0.0000  0.0000 </r>
        <r>  0.0001  0.0006  0.0000  0.0000  0.0000  0.0000  0.0000  0.0000  0.0000 </r>
        <r>  0.0001  0.0006  0.0000  0.0000  0.0000  0.0000  0.0000  0.0000  0.0000 </r>
       </set>
       <set comment="band 19">
        <r>  0.0000  0.0000  0.0014  0.0000  0.0000  0.0000  0.0000  0.0000  0.0000 </r>
        <r>  0.0000  0.0000  0.0014  0.0000  0.0000  0.0000  0.0000  0.0000  0.0000 </r>
        <r>  0.0000  0.0000  0.0118  0.0000  0.0000  0.0000  0.0000  0.0000  0.0000 </r>
        <r>  0.0000  0.0000  0.0118  0.0000  0.0000  0.0000  0.0000  0.0000  0.0000 </r>
       </set>
       <set comment="band 20">
        <r>  0.0000  0.0000  0.0118  0.0000  0.0000  0.0000  0.0000  0.0000  0.0000 </r>
        <r>  0.0000  0.0000  0.0118  0.0000  0.0000  0.0000  0.0000  0.0000  0.0000 </r>
        <r>  0.0000  0.0000  0.0014  0.0000  0.0000  0.0000  0.0000  0.0000  0.0000 </r>
        <r>  0.0000  0.0000  0.0014  0.0000  0.0000  0.0000  0.0000  0.0000  0.0000 </r>
       </set>
       <set comment="band 21">
        <r>  0.0001  0.0043  0.0000  0.0000  0.0000  0.0000  0.0000  0.0000  0.0000 </r>
        <r>  0.0001  0.0043  0.0000  0.0000  0.0000  0.0000  0.0000  0.0000  0.0000 </r>
        <r>  0.0014  0.0002  0.0000  0.0003  0.0000  0.0000  0.0000  0.0000  0.0000 </r>
        <r>  0.0014  0.0002  0.0000  0.0003  0.0000  0.0000  0.0000  0.0000  0.0000 </r>
       </set>
       <set comment="band 22">
        <r>  0.0014  0.0002  0.0000  0.0003  0.0000  0.0000  0.0000  0.0000  0.0000 </r>
        <r>  0.0014  0.0002  0.0000  0.0003  0.0000  0.0000  0.0000  0.0000  0.0000 </r>
        <r>  0.0001  0.0043  0.0000  0.0000  0.0000  0.0000  0.0000  0.0000  0.0000 </r>
        <r>  0.0001  0.0043  0.0000  0.0000  0.0000  0.0000  0.0000  0.0000  0.0000 </r>
       </set>
       <set comment="band 23">
        <r>  0.0000  0.0000  0.0290  0.0000  0.0000  0.0000  0.0000  0.0000  0.0000 </r>
        <r>  0.0000  0.0000  0.0290  0.0000  0.0000  0.0000  0.0000  0.0000  0.0000 </r>
        <r>  0.0000  0.0000  0.0002  0.0000  0.0000  0.0000  0.0000  0.0000  0.0000 </r>
        <r>  0.0000  0.0000  0.0002  0.0000  0.0000  0.0000  0.0000  0.0000  0.0000 </r>
       </set>
       <set comment="band 24">
        <r>  0.0000  0.0000  0.0002  0.0000  0.0000  0.0000  0.0000  0.0000  0.0000 </r>
        <r>  0.0000  0.0000  0.0002  0.0000  0.0000  0.0000  0.0000  0.0000  0.0000 </r>
        <r>  0.0000  0.0000  0.0290  0.0000  0.0000  0.0000  0.0000  0.0000  0.0000 </r>
        <r>  0.0000  0.0000  0.0290  0.0000  0.0000  0.0000  0.0000  0.0000  0.0000 </r>
       </set>
       <set comment="band 25">
        <r>  0.0000  0.0193  0.0000  0.0022  0.0000  0.0000  0.0000  0.0000  0.0000 </r>
        <r>  0.0000  0.0193  0.0000  0.0022  0.0000  0.0000  0.0000  0.0000  0.0000 </r>
        <r>  0.0001  0.0016  0.0000  0.0260  0.0000  0.0000  0.0000  0.0000  0.0000 </r>
        <r>  0.0001  0.0016  0.0000  0.0260  0.0000  0.0000  0.0000  0.0000  0.0000 </r>
       </set>
       <set comment="band 26">
        <r>  0.0001  0.0016  0.0000  0.0260  0.0000  0.0000  0.0000  0.0000  0.0000 </r>
        <r>  0.0001  0.0016  0.0000  0.0260  0.0000  0.0000  0.0000  0.0000  0.0000 </r>
        <r>  0.0000  0.0193  0.0000  0.0022  0.0000  0.0000  0.0000  0.0000  0.0000 </r>
        <r>  0.0000  0.0193  0.0000  0.0022  0.0000  0.0000  0.0000  0.0000  0.0000 </r>
       </set>
       <set comment="band 27">
        <r>  0.0000  0.0000  0.0000  0.0000  0.0000  0.0000  0.0000  0.0000  0.0000 </r>
        <r>  0.0000  0.0000  0.0000  0.0000  0.0000  0.0000  0.0000  0.0000  0.0000 </r>
        <r>  0.0000  0.0000  0.0148  0.0000  0.0000  0.0000  0.0000  0.0000  0.0000 </r>
        <r>  0.0000  0.0000  0.0148  0.0000  0.0000  0.0000  0.0000  0.0000  0.0000 </r>
       </set>
       <set comment="band 28">
        <r>  0.0000  0.0000  0.0148  0.0000  0.0000  0.0000  0.0000  0.0000  0.0000 </r>
        <r>  0.0000  0.0000  0.0148  0.0000  0.0000  0.0000  0.0000  0.0000  0.0000 </r>
        <r>  0.0000  0.0000  0.0000  0.0000  0.0000  0.0000  0.0000  0.0000  0.0000 </r>
        <r>  0.0000  0.0000  0.0000  0.0000  0.0000  0.0000  0.0000  0.0000  0.0000 </r>
       </set>
       <set comment="band 29">
        <r>  0.0011  0.0020  0.0000  0.0004  0.0000  0.0000  0.0000  0.0000  0.0000 </r>
        <r>  0.0011  0.0020  0.0000  0.0004  0.0000  0.0000  0.0000  0.0000  0.0000 </r>
        <r>  0.0003  0.0075  0.0000  0.0001  0.0000  0.0000  0.0000  0.0000  0.0000 </r>
        <r>  0.0003  0.0075  0.0000  0.0001  0.0000  0.0000  0.0000  0.0000  0.0000 </r>
       </set>
       <set comment="band 30">
        <r>  0.0003  0.0075  0.0000  0.0001  0.0000  0.0000  0.0000  0.0000  0.0000 </r>
        <r>  0.0003  0.0075  0.0000  0.0001  0.0000  0.0000  0.0000  0.0000  0.0000 </r>
        <r>  0.0011  0.0020  0.0000  0.0004  0.0000  0.0000  0.0000  0.0000  0.0000 </r>
        <r>  0.0011  0.0020  0.0000  0.0004  0.0000  0.0000  0.0000  0.0000  0.0000 </r>
       </set>
       <set comment="band 31">
        <r>  0.0002  0.0000  0.0000  0.0031  0.0000  0.0000  0.0000  0.0000  0.0000 </r>
        <r>  0.0002  0.0000  0.0000  0.0031  0.0000  0.0000  0.0000  0.0000  0.0000 </r>
        <r>  0.0000  0.0017  0.0000  0.0000  0.0000  0.0000  0.0000  0.0000  0.0000 </r>
        <r>  0.0000  0.0017  0.0000  0.0000  0.0000  0.0000  0.0000  0.0000  0.0000 </r>
       </set>
       <set comment="band 32">
        <r>  0.0000  0.0017  0.0000  0.0000  0.0000  0.0000  0.0000  0.0000  0.0000 </r>
        <r>  0.0000  0.0017  0.0000  0.0000  0.0000  0.0000  0.0000  0.0000  0.0000 </r>
        <r>  0.0002  0.0000  0.0000  0.0031  0.0000  0.0000  0.0000  0.0000  0.0000 </r>
        <r>  0.0002  0.0000  0.0000  0.0031  0.0000  0.0000  0.0000  0.0000  0.0000 </r>
       </set>
      </set>
      <set comment="kpoint 15">
       <set comment="band 1">
        <r>  0.0000  0.0476  0.0000  0.0000  0.0000  0.0000  0.0000  0.0000  0.0000 </r>
        <r>  0.0000  0.0476  0.0000  0.0000  0.0000  0.0000  0.0000  0.0000  0.0000 </r>
        <r>  0.3002  0.0000  0.0000  0.0160  0.0000  0.0000  0.0000  0.0000  0.0000 </r>
        <r>  0.3002  0.0000  0.0000  0.0160  0.0000  0.0000  0.0000  0.0000  0.0000 </r>
       </set>
       <set comment="band 2">
        <r>  0.3002  0.0000  0.0000  0.0160  0.0000  0.0000  0.0000  0.0000  0.0000 </r>
        <r>  0.3002  0.0000  0.0000  0.0160  0.0000  0.0000  0.0000  0.0000  0.0000 </r>
        <r>  0.0000  0.0476  0.0000  0.0000  0.0000  0.0000  0.0000  0.0000  0.0000 </r>
        <r>  0.0000  0.0476  0.0000  0.0000  0.0000  0.0000  0.0000  0.0000  0.0000 </r>
       </set>
       <set comment="band 3">
        <r>  0.1381  0.0000  0.0000  0.0491  0.0000  0.0000  0.0000  0.0000  0.0000 </r>
        <r>  0.1381  0.0000  0.0000  0.0491  0.0000  0.0000  0.0000  0.0000  0.0000 </r>
        <r>  0.0000  0.1473  0.0000  0.0000  0.0000  0.0000  0.0000  0.0000  0.0000 </r>
        <r>  0.0000  0.1473  0.0000  0.0000  0.0000  0.0000  0.0000  0.0000  0.0000 </r>
       </set>
       <set comment="band 4">
        <r>  0.0000  0.1473  0.0000  0.0000  0.0000  0.0000  0.0000  0.0000  0.0000 </r>
        <r>  0.0000  0.1473  0.0000  0.0000  0.0000  0.0000  0.0000  0.0000  0.0000 </r>
        <r>  0.1381  0.0000  0.0000  0.0491  0.0000  0.0000  0.0000  0.0000  0.0000 </r>
        <r>  0.1381  0.0000  0.0000  0.0491  0.0000  0.0000  0.0000  0.0000  0.0000 </r>
       </set>
       <set comment="band 5">
        <r>  0.0000  0.0984  0.0000  0.0000  0.0000  0.0000  0.0000  0.0000  0.0000 </r>
        <r>  0.0000  0.0984  0.0000  0.0000  0.0000  0.0000  0.0000  0.0000  0.0000 </r>
        <r>  0.0000  0.0000  0.0000  0.2953  0.0000  0.0000  0.0000  0.0000  0.0000 </r>
        <r>  0.0000  0.0000  0.0000  0.2953  0.0000  0.0000  0.0000  0.0000  0.0000 </r>
       </set>
       <set comment="band 6">
        <r>  0.0000  0.0000  0.0000  0.2953  0.0000  0.0000  0.0000  0.0000  0.0000 </r>
        <r>  0.0000  0.0000  0.0000  0.2953  0.0000  0.0000  0.0000  0.0000  0.0000 </r>
        <r>  0.0000  0.0984  0.0000  0.0000  0.0000  0.0000  0.0000  0.0000  0.0000 </r>
        <r>  0.0000  0.0984  0.0000  0.0000  0.0000  0.0000  0.0000  0.0000  0.0000 </r>
       </set>
       <set comment="band 7">
        <r>  0.0000  0.0000  0.0000  0.0000  0.0000  0.0000  0.0000  0.0000  0.0000 </r>
        <r>  0.0000  0.0000  0.0000  0.0000  0.0000  0.0000  0.0000  0.0000  0.0000 </r>
        <r>  0.0000  0.0000  0.2561  0.0000  0.0000  0.0000  0.0000  0.0000  0.0000 </r>
        <r>  0.0000  0.0000  0.2561  0.0000  0.0000  0.0000  0.0000  0.0000  0.0000 </r>
       </set>
       <set comment="band 8">
        <r>  0.0000  0.0000  0.2561  0.0000  0.0000  0.0000  0.0000  0.0000  0.0000 </r>
        <r>  0.0000  0.0000  0.2561  0.0000  0.0000  0.0000  0.0000  0.0000  0.0000 </r>
        <r>  0.0000  0.0000  0.0000  0.0000  0.0000  0.0000  0.0000  0.0000  0.0000 </r>
        <r>  0.0000  0.0000  0.0000  0.0000  0.0000  0.0000  0.0000  0.0000  0.0000 </r>
       </set>
       <set comment="band 9">
        <r>  0.0000  0.0000  0.0000  0.0000  0.0000  0.0000  0.0000  0.0000  0.0000 </r>
        <r>  0.0000  0.0000  0.0000  0.0000  0.0000  0.0000  0.0000  0.0000  0.0000 </r>
        <r>  0.0000  0.0000  0.2244  0.0000  0.0000  0.0000  0.0000  0.0000  0.0000 </r>
        <r>  0.0000  0.0000  0.2244  0.0000  0.0000  0.0000  0.0000  0.0000  0.0000 </r>
       </set>
       <set comment="band 10">
        <r>  0.0000  0.0000  0.2244  0.0000  0.0000  0.0000  0.0000  0.0000  0.0000 </r>
        <r>  0.0000  0.0000  0.2244  0.0000  0.0000  0.0000  0.0000  0.0000  0.0000 </r>
        <r>  0.0000  0.0000  0.0000  0.0000  0.0000  0.0000  0.0000  0.0000  0.0000 </r>
        <r>  0.0000  0.0000  0.0000  0.0000  0.0000  0.0000  0.0000  0.0000  0.0000 </r>
       </set>
       <set comment="band 11">
        <r>  0.1848  0.0000  0.0000  0.0100  0.0000  0.0000  0.0000  0.0000  0.0000 </r>
        <r>  0.1848  0.0000  0.0000  0.0100  0.0000  0.0000  0.0000  0.0000  0.0000 </r>
        <r>  0.0000  0.0304  0.0000  0.0000  0.0000  0.0000  0.0000  0.0000  0.0000 </r>
        <r>  0.0000  0.0304  0.0000  0.0000  0.0000  0.0000  0.0000  0.0000  0.0000 </r>
       </set>
       <set comment="band 12">
        <r>  0.0000  0.0304  0.0000  0.0000  0.0000  0.0000  0.0000  0.0000  0.0000 </r>
        <r>  0.0000  0.0304  0.0000  0.0000  0.0000  0.0000  0.0000  0.0000  0.0000 </r>
        <r>  0.1848  0.0000  0.0000  0.0100  0.0000  0.0000  0.0000  0.0000  0.0000 </r>
        <r>  0.1848  0.0000  0.0000  0.0100  0.0000  0.0000  0.0000  0.0000  0.0000 </r>
       </set>
       <set comment="band 13">
        <r>  0.0000  0.0107  0.0000  0.0000  0.0000  0.0000  0.0000  0.0000  0.0000 </r>
        <r>  0.0000  0.0107  0.0000  0.0000  0.0000  0.0000  0.0000  0.0000  0.0000 </r>
        <r>  0.0045  0.0000  0.0000  0.0036  0.0000  0.0000  0.0000  0.0000  0.0000 </r>
        <r>  0.0045  0.0000  0.0000  0.0036  0.0000  0.0000  0.0000  0.0000  0.0000 </r>
       </set>
       <set comment="band 14">
        <r>  0.0045  0.0000  0.0000  0.0036  0.0000  0.0000  0.0000  0.0000  0.0000 </r>
        <r>  0.0045  0.0000  0.0000  0.0036  0.0000  0.0000  0.0000  0.0000  0.0000 </r>
        <r>  0.0000  0.0107  0.0000  0.0000  0.0000  0.0000  0.0000  0.0000  0.0000 </r>
        <r>  0.0000  0.0107  0.0000  0.0000  0.0000  0.0000  0.0000  0.0000  0.0000 </r>
       </set>
       <set comment="band 15">
        <r>  0.0018  0.0000  0.0000  0.0039  0.0000  0.0000  0.0000  0.0000  0.0000 </r>
        <r>  0.0018  0.0000  0.0000  0.0039  0.0000  0.0000  0.0000  0.0000  0.0000 </r>
        <r>  0.0000  0.0119  0.0000  0.0000  0.0000  0.0000  0.0000  0.0000  0.0000 </r>
        <r>  0.0000  0.0119  0.0000  0.0000  0.0000  0.0000  0.0000  0.0000  0.0000 </r>
       </set>
       <set comment="band 16">
        <r>  0.0000  0.0119  0.0000  0.0000  0.0000  0.0000  0.0000  0.0000  0.0000 </r>
        <r>  0.0000  0.0119  0.0000  0.0000  0.0000  0.0000  0.0000  0.0000  0.0000 </r>
        <r>  0.0018  0.0000  0.0000  0.0039  0.0000  0.0000  0.0000  0.0000  0.0000 </r>
        <r>  0.0018  0.0000  0.0000  0.0039  0.0000  0.0000  0.0000  0.0000  0.0000 </r>
       </set>
       <set comment="band 17">
        <r>  0.0000  0.0000  0.0375  0.0000  0.0000  0.0000  0.0000  0.0000  0.0000 </r>
        <r>  0.0000  0.0000  0.0375  0.0000  0.0000  0.0000  0.0000  0.0000  0.0000 </r>
        <r>  0.0000  0.0000  0.0000  0.0000  0.0000  0.0000  0.0000  0.0000  0.0000 </r>
        <r>  0.0000  0.0000  0.0000  0.0000  0.0000  0.0000  0.0000  0.0000  0.0000 </r>
       </set>
       <set comment="band 18">
        <r>  0.0000  0.0000  0.0000  0.0000  0.0000  0.0000  0.0000  0.0000  0.0000 </r>
        <r>  0.0000  0.0000  0.0000  0.0000  0.0000  0.0000  0.0000  0.0000  0.0000 </r>
        <r>  0.0000  0.0000  0.0375  0.0000  0.0000  0.0000  0.0000  0.0000  0.0000 </r>
        <r>  0.0000  0.0000  0.0375  0.0000  0.0000  0.0000  0.0000  0.0000  0.0000 </r>
       </set>
       <set comment="band 19">
        <r>  0.0000  0.0000  0.0000  0.0000  0.0000  0.0000  0.0000  0.0000  0.0000 </r>
        <r>  0.0000  0.0000  0.0000  0.0000  0.0000  0.0000  0.0000  0.0000  0.0000 </r>
        <r>  0.0000  0.0000  0.0116  0.0000  0.0000  0.0000  0.0000  0.0000  0.0000 </r>
        <r>  0.0000  0.0000  0.0116  0.0000  0.0000  0.0000  0.0000  0.0000  0.0000 </r>
       </set>
       <set comment="band 20">
        <r>  0.0000  0.0000  0.0116  0.0000  0.0000  0.0000  0.0000  0.0000  0.0000 </r>
        <r>  0.0000  0.0000  0.0116  0.0000  0.0000  0.0000  0.0000  0.0000  0.0000 </r>
        <r>  0.0000  0.0000  0.0000  0.0000  0.0000  0.0000  0.0000  0.0000  0.0000 </r>
        <r>  0.0000  0.0000  0.0000  0.0000  0.0000  0.0000  0.0000  0.0000  0.0000 </r>
       </set>
       <set comment="band 21">
        <r>  0.0000  0.0009  0.0000  0.0000  0.0000  0.0000  0.0000  0.0000  0.0000 </r>
        <r>  0.0000  0.0009  0.0000  0.0000  0.0000  0.0000  0.0000  0.0000  0.0000 </r>
        <r>  0.0002  0.0000  0.0000  0.0003  0.0000  0.0000  0.0000  0.0000  0.0000 </r>
        <r>  0.0002  0.0000  0.0000  0.0003  0.0000  0.0000  0.0000  0.0000  0.0000 </r>
       </set>
       <set comment="band 22">
        <r>  0.0002  0.0000  0.0000  0.0003  0.0000  0.0000  0.0000  0.0000  0.0000 </r>
        <r>  0.0002  0.0000  0.0000  0.0003  0.0000  0.0000  0.0000  0.0000  0.0000 </r>
        <r>  0.0000  0.0009  0.0000  0.0000  0.0000  0.0000  0.0000  0.0000  0.0000 </r>
        <r>  0.0000  0.0009  0.0000  0.0000  0.0000  0.0000  0.0000  0.0000  0.0000 </r>
       </set>
       <set comment="band 23">
        <r>  0.0001  0.0000  0.0000  0.0003  0.0000  0.0000  0.0000  0.0000  0.0000 </r>
        <r>  0.0001  0.0000  0.0000  0.0003  0.0000  0.0000  0.0000  0.0000  0.0000 </r>
        <r>  0.0000  0.0010  0.0000  0.0000  0.0000  0.0000  0.0000  0.0000  0.0000 </r>
        <r>  0.0000  0.0010  0.0000  0.0000  0.0000  0.0000  0.0000  0.0000  0.0000 </r>
       </set>
       <set comment="band 24">
        <r>  0.0000  0.0010  0.0000  0.0000  0.0000  0.0000  0.0000  0.0000  0.0000 </r>
        <r>  0.0000  0.0010  0.0000  0.0000  0.0000  0.0000  0.0000  0.0000  0.0000 </r>
        <r>  0.0001  0.0000  0.0000  0.0003  0.0000  0.0000  0.0000  0.0000  0.0000 </r>
        <r>  0.0001  0.0000  0.0000  0.0003  0.0000  0.0000  0.0000  0.0000  0.0000 </r>
       </set>
       <set comment="band 25">
        <r>  0.0000  0.0000  0.0173  0.0000  0.0000  0.0000  0.0000  0.0000  0.0000 </r>
        <r>  0.0000  0.0000  0.0173  0.0000  0.0000  0.0000  0.0000  0.0000  0.0000 </r>
        <r>  0.0000  0.0000  0.0000  0.0000  0.0000  0.0000  0.0000  0.0000  0.0000 </r>
        <r>  0.0000  0.0000  0.0000  0.0000  0.0000  0.0000  0.0000  0.0000  0.0000 </r>
       </set>
       <set comment="band 26">
        <r>  0.0000  0.0000  0.0000  0.0000  0.0000  0.0000  0.0000  0.0000  0.0000 </r>
        <r>  0.0000  0.0000  0.0000  0.0000  0.0000  0.0000  0.0000  0.0000  0.0000 </r>
        <r>  0.0000  0.0000  0.0173  0.0000  0.0000  0.0000  0.0000  0.0000  0.0000 </r>
        <r>  0.0000  0.0000  0.0173  0.0000  0.0000  0.0000  0.0000  0.0000  0.0000 </r>
       </set>
       <set comment="band 27">
        <r>  0.0000  0.0000  0.0000  0.0000  0.0000  0.0000  0.0000  0.0000  0.0000 </r>
        <r>  0.0000  0.0000  0.0000  0.0000  0.0000  0.0000  0.0000  0.0000  0.0000 </r>
        <r>  0.0000  0.0000  0.0069  0.0000  0.0000  0.0000  0.0000  0.0000  0.0000 </r>
        <r>  0.0000  0.0000  0.0069  0.0000  0.0000  0.0000  0.0000  0.0000  0.0000 </r>
       </set>
       <set comment="band 28">
        <r>  0.0000  0.0000  0.0069  0.0000  0.0000  0.0000  0.0000  0.0000  0.0000 </r>
        <r>  0.0000  0.0000  0.0069  0.0000  0.0000  0.0000  0.0000  0.0000  0.0000 </r>
        <r>  0.0000  0.0000  0.0000  0.0000  0.0000  0.0000  0.0000  0.0000  0.0000 </r>
        <r>  0.0000  0.0000  0.0000  0.0000  0.0000  0.0000  0.0000  0.0000  0.0000 </r>
       </set>
       <set comment="band 29">
        <r>  0.0000  0.0051  0.0000  0.0000  0.0000  0.0000  0.0000  0.0000  0.0000 </r>
        <r>  0.0000  0.0051  0.0000  0.0000  0.0000  0.0000  0.0000  0.0000  0.0000 </r>
        <r>  0.0008  0.0000  0.0000  0.0017  0.0000  0.0000  0.0000  0.0000  0.0000 </r>
        <r>  0.0008  0.0000  0.0000  0.0017  0.0000  0.0000  0.0000  0.0000  0.0000 </r>
       </set>
       <set comment="band 30">
        <r>  0.0008  0.0000  0.0000  0.0017  0.0000  0.0000  0.0000  0.0000  0.0000 </r>
        <r>  0.0008  0.0000  0.0000  0.0017  0.0000  0.0000  0.0000  0.0000  0.0000 </r>
        <r>  0.0000  0.0051  0.0000  0.0000  0.0000  0.0000  0.0000  0.0000  0.0000 </r>
        <r>  0.0000  0.0051  0.0000  0.0000  0.0000  0.0000  0.0000  0.0000  0.0000 </r>
       </set>
       <set comment="band 31">
        <r>  0.0004  0.0000  0.0000  0.0016  0.0000  0.0000  0.0000  0.0000  0.0000 </r>
        <r>  0.0004  0.0000  0.0000  0.0016  0.0000  0.0000  0.0000  0.0000  0.0000 </r>
        <r>  0.0000  0.0049  0.0000  0.0000  0.0000  0.0000  0.0000  0.0000  0.0000 </r>
        <r>  0.0000  0.0049  0.0000  0.0000  0.0000  0.0000  0.0000  0.0000  0.0000 </r>
       </set>
       <set comment="band 32">
        <r>  0.0000  0.0049  0.0000  0.0000  0.0000  0.0000  0.0000  0.0000  0.0000 </r>
        <r>  0.0000  0.0049  0.0000  0.0000  0.0000  0.0000  0.0000  0.0000  0.0000 </r>
        <r>  0.0004  0.0000  0.0000  0.0016  0.0000  0.0000  0.0000  0.0000  0.0000 </r>
        <r>  0.0004  0.0000  0.0000  0.0016  0.0000  0.0000  0.0000  0.0000  0.0000 </r>
       </set>
      </set>
     </set>
    </set>
   </array>
  </projected>
 </calculation>
 <structure name="finalpos" >
  <crystal>
   <varray name="basis" >
    <v>       4.26622041       0.00000000       0.00000000 </v>
    <v>       0.00000000       2.46518870       0.00000000 </v>
    <v>       0.00000000       0.00000000      20.00000000 </v>
   </varray>
   <i name="volume">    210.34076648 </i>
   <varray name="rec_basis" >
    <v>       0.23439952       0.00000000       0.00000000 </v>
    <v>       0.00000000       0.40564846       0.00000000 </v>
    <v>       0.00000000       0.00000000       0.05000000 </v>
   </varray>
  </crystal>
  <varray name="positions" >
   <v>       0.33334688       0.00000000       0.50000000 </v>
   <v>       0.66665312       0.00000000       0.50000000 </v>
   <v>       0.16665312       0.50000000       0.50000000 </v>
   <v>       0.83334688       0.50000000       0.50000000 </v>
  </varray>
 </structure>
</modeling>
