 running on    2 total cores
 distrk:  each k-point on    2 cores,    1 groups
 distr:  one band on    1 cores,    2 groups
 using from now: INCAR     
 vasp.5.4.4.18Apr17-6-g9f103f2a35 (build May 21 2018 15:16:00) complex           
 POSCAR found type information on POSCAR  C 
 POSCAR found :  1 types and       8 ions
 scaLAPACK will be used
 LDA part: xc-table for Pade appr. of Perdew
 WARNING: stress and forces are not correct
 POSCAR, INCAR and KPOINTS ok, starting setup
 FFT: planning ...
 WAVECAR not read
 charge-density read from file: C                                       
 entering main loop
       N       E                     dE             d eps       ncg     rms          rms(c)
DAV:   1     0.152547054310E+03    0.15255E+03   -0.82175E+03  7048   0.294E+02
DAV:   2    -0.497094974108E+02   -0.20226E+03   -0.16699E+03  9656   0.890E+01
DAV:   3    -0.727200056810E+02   -0.23011E+02   -0.22647E+02  9592   0.291E+01
DAV:   4    -0.730812662228E+02   -0.36126E+00   -0.36041E+00  8968   0.459E+00
DAV:   5    -0.730871386059E+02   -0.58724E-02   -0.58703E-02  9432   0.544E-01
DAV:   6    -0.730872821748E+02   -0.14357E-03   -0.14353E-03  9472   0.749E-02
DAV:   7    -0.730872842694E+02   -0.20946E-05   -0.20944E-05  9840   0.889E-03
DAV:   8    -0.730872843242E+02   -0.54805E-07   -0.54837E-07  8784   0.144E-03
   1 F= -.73087284E+02 E0= -.73087182E+02  d E =-.205157E-03
 writing wavefunctions
