 vasp.5.4.4.18Apr17-6-g9f103f2a35 (build May 21 2018 15:16:00) complex           
 executed on GUN_wannier90_optcel date 2019.03.25  13:25:41
 running on    2 total cores
 distrk:  each k-point on    2 cores,    1 groups
 distr:  one band on NCORES_PER_BAND=   1 cores,    2 groups


--------------------------------------------------------------------------------------------------------


 INCAR:
 POTCAR:    PAW_PBE C 08Apr2002                   
 POTCAR:    PAW_PBE C 08Apr2002                   
  local pseudopotential read in
  partial core-charges read in
  partial kinetic energy density read in
  atomic valenz-charges read in
  non local Contribution for L=           0  read in
    real space projection operators read in
  non local Contribution for L=           0  read in
    real space projection operators read in
  non local Contribution for L=           1  read in
    real space projection operators read in
  non local Contribution for L=           1  read in
    real space projection operators read in
    PAW grid and wavefunctions read in

   number of l-projection  operators is LMAX  =           4
   number of lm-projection operators is LMMAX =           8

  PAW_PBE C 08Apr2002                   :
 energy of atom  1       EATOM= -147.1560
 kinetic energy error for atom=    0.0288 (will be added to EATOM!!)


 POSCAR: generated by phonopy                    
  positions in direct lattice
  No initial velocities read in
 exchange correlation table for  LEXCH =        8
   RHO(1)=    0.500       N(1)  =     2000
   RHO(2)=  100.500       N(2)  =     4000



--------------------------------------------------------------------------------------------------------


 ion  position               nearest neighbor table
   1  0.333  0.167  0.500-   5 1.42   7 1.42   6 1.42
   2  0.833  0.167  0.500-   6 1.42   8 1.42   5 1.42
   3  0.333  0.667  0.500-   7 1.42   5 1.42   8 1.42
   4  0.833  0.667  0.500-   8 1.42   6 1.42   7 1.42
   5  0.167  0.333  0.500-   1 1.42   3 1.42   2 1.42
   6  0.667  0.333  0.500-   2 1.42   4 1.42   1 1.42
   7  0.167  0.833  0.500-   3 1.42   1 1.42   4 1.42
   8  0.667  0.833  0.500-   4 1.42   2 1.42   3 1.42

  LATTYP: Found a hexagonal cell.
 ALAT       =     4.9294165983
 C/A-ratio  =     4.0572752578
  
  Lattice vectors:
  
 A1 = (   4.9294165983,   0.0000000000,   0.0000000000)
 A2 = (  -2.4647082992,   4.2690000000,   0.0000000000)
 A3 = (   0.0000000000,   0.0000000000,  20.0000000000)


Analysis of symmetry for initial positions (statically):
=====================================================================
 Subroutine PRICEL returns following result:
 
  LATTYP: Found a hexagonal cell.
 ALAT       =     2.4647082992
 C/A-ratio  =     8.1145505157
  
  Lattice vectors:
  
 A1 = (   2.4647082992,   0.0000000000,   0.0000000000)
 A2 = (  -1.2323541496,   2.1345000000,   0.0000000000)
 A3 = (   0.0000000000,   0.0000000000,  20.0000000000)
 
   4 primitive cells build up your supercell.
 

 Routine SETGRP: Setting up the symmetry group for a 
 hexagonal supercell.


 Subroutine GETGRP returns: Found 24 space group operations
 (whereof 24 operations were pure point group operations)
 out of a pool of 24 trial point group operations.


The static configuration has the point symmetry D_6h.


Analysis of symmetry for dynamics (positions and initial velocities):
=====================================================================
 Subroutine PRICEL returns following result:
 
  LATTYP: Found a hexagonal cell.
 ALAT       =     2.4647082992
 C/A-ratio  =     8.1145505157
  
  Lattice vectors:
  
 A1 = (   2.4647082992,   0.0000000000,   0.0000000000)
 A2 = (  -1.2323541496,   2.1345000000,   0.0000000000)
 A3 = (   0.0000000000,   0.0000000000,  20.0000000000)
 
   4 primitive cells build up your supercell.
 

 Routine SETGRP: Setting up the symmetry group for a 
 hexagonal supercell.


 Subroutine GETGRP returns: Found 24 space group operations
 (whereof 24 operations were pure point group operations)
 out of a pool of 24 trial point group operations.


The dynamic configuration has the point symmetry D_6h.


 Subroutine INISYM returns: Found 24 space group operations
 (whereof 24 operations are pure point group operations),
 and found     4 'primitive' translations



 KPOINTS: K-points along the directions K1-Gamma, 
  k-points in reciprocal lattice
Space group operators:
 irot       det(A)        alpha          n_x          n_y          n_z        tau_x        tau_y        tau_z
    1     1.000000     0.000000     1.000000     0.000000     0.000000     0.000000     0.000000     0.000000
    2    -1.000000     0.000000     1.000000     0.000000     0.000000     0.000000     0.000000     0.000000
    3     1.000000    60.000000     0.000000     0.000000    -1.000000     0.000000     0.000000     0.000000
    4    -1.000000    60.000000     0.000000     0.000000    -1.000000     0.000000     0.000000     0.000000
    5     1.000000   120.000000     0.000000     0.000000    -1.000000     0.000000     0.000000     0.000000
    6    -1.000000   120.000000     0.000000     0.000000    -1.000000     0.000000     0.000000     0.000000
    7     1.000000   180.000000     0.000000     0.000000     1.000000     0.000000     0.000000     0.000000
    8    -1.000000   180.000000     0.000000     0.000000     1.000000     0.000000     0.000000     0.000000
    9     1.000000   120.000000     0.000000     0.000000     1.000000     0.000000     0.000000     0.000000
   10    -1.000000   120.000000     0.000000     0.000000     1.000000     0.000000     0.000000     0.000000
   11     1.000000    60.000000     0.000000     0.000000     1.000000     0.000000     0.000000     0.000000
   12    -1.000000    60.000000     0.000000     0.000000     1.000000     0.000000     0.000000     0.000000
   13     1.000000   180.000000     1.000000    -0.000000     0.000000     0.000000     0.000000     0.000000
   14    -1.000000   180.000000     1.000000    -0.000000     0.000000     0.000000     0.000000     0.000000
   15     1.000000   180.000000     0.866025    -0.500000     0.000000     0.000000     0.000000     0.000000
   16    -1.000000   180.000000     0.866025    -0.500000     0.000000     0.000000     0.000000     0.000000
   17     1.000000   180.000000     0.500000    -0.866025     0.000000     0.000000     0.000000     0.000000
   18    -1.000000   180.000000     0.500000    -0.866025     0.000000     0.000000     0.000000     0.000000
   19     1.000000   180.000000     0.000000     1.000000     0.000000     0.000000     0.000000     0.000000
   20    -1.000000   180.000000     0.000000     1.000000     0.000000     0.000000     0.000000     0.000000
   21     1.000000   180.000000    -0.500000    -0.866025     0.000000     0.000000     0.000000     0.000000
   22    -1.000000   180.000000    -0.500000    -0.866025     0.000000     0.000000     0.000000     0.000000
   23     1.000000   180.000000     0.866025     0.500000     0.000000     0.000000     0.000000     0.000000
   24    -1.000000   180.000000     0.866025     0.500000     0.000000     0.000000     0.000000     0.000000


--------------------------------------------------------------------------------------------------------




 Dimension of arrays:
   k-points           NKPTS =     55   k-points in BZ     NKDIM =     55   number of bands    NBANDS=     64
   number of dos      NEDOS =   3000   number of ions     NIONS =      8
   non local maximal  LDIM  =      4   non local SUM 2l+1 LMDIM =      8
   total plane-waves  NPLWV = 143360
   max r-space proj   IRMAX =      1   max aug-charges    IRDMAX=   4219
   dimension x,y,z NGX =    32 NGY =   32 NGZ =  140
   dimension x,y,z NGXF=    64 NGYF=   64 NGZF=  280
   support grid    NGXF=    64 NGYF=   64 NGZF=  280
   ions per type =               8
   NGX,Y,Z   is equivalent  to a cutoff of  10.79, 10.79, 11.64 a.u.
   NGXF,Y,Z  is equivalent  to a cutoff of  21.58, 21.58, 23.27 a.u.

 SYSTEM =  C                                       
 POSCAR =  generated by phonopy                    

 Startparameter for this run:
   NWRITE =      1    write-flag & timer
   PREC   = a         normal or accurate (medium, high low for compatibility)
   ISTART =      0    job   : 0-new  1-cont  2-samecut
   ICHARG =     11    charge: 1-file 2-atom 10-const
   ISPIN  =      1    spin polarized calculation?
   LNONCOLLINEAR =      F non collinear calculations
   LSORBIT =      F    spin-orbit coupling
   INIWAV =      1    electr: 0-lowe 1-rand  2-diag
   LASPH  =      F    aspherical Exc in radial PAW
   METAGGA=      F    non-selfconsistent MetaGGA calc.

 Electronic Relaxation 1
   ENCUT  =  400.0 eV  29.40 Ry    5.42 a.u.   8.04  8.04 32.61*2*pi/ulx,y,z
   ENINI  =  400.0     initial cutoff
   ENAUG  =  644.9 eV  augmentation charge cutoff
   NELM   =   2000;   NELMIN=  5; NELMDL= -5     # of ELM steps 
   EDIFF  = 0.1E-05   stopping-criterion for ELM
   LREAL  =      F    real-space projection
   NLSPLINE    = F    spline interpolate recip. space projectors
   LCOMPAT=      F    compatible to vasp.4.4
   GGA_COMPAT  = T    GGA compatible to vasp.4.4-vasp.4.6
   LMAXPAW     = -100 max onsite density
   LMAXMIX     =    2 max onsite mixed and CHGCAR
   VOSKOWN=      0    Vosko Wilk Nusair interpolation
   ROPT   =    0.00000
 Ionic relaxation
   EDIFFG = -.1E-01   stopping-criterion for IOM
   NSW    =      0    number of steps for IOM
   NBLOCK =      1;   KBLOCK =      1    inner block; outer block 
   IBRION =     -1    ionic relax: 0-MD 1-quasi-New 2-CG
   NFREE  =      0    steps in history (QN), initial steepest desc. (CG)
   ISIF   =      2    stress and relaxation
   IWAVPR =     10    prediction:  0-non 1-charg 2-wave 3-comb
   ISYM   =      2    0-nonsym 1-usesym 2-fastsym
   LCORR  =      T    Harris-Foulkes like correction to forces

   POTIM  = 0.5000    time-step for ionic-motion
   TEIN   =    0.0    initial temperature
   TEBEG  =    0.0;   TEEND  =   0.0 temperature during run
   SMASS  =  -3.00    Nose mass-parameter (am)
   estimated Nose-frequenzy (Omega)   =  0.10E-29 period in steps =****** mass=  -0.555E-27a.u.
   SCALEE = 1.0000    scale energy and forces
   NPACO  =    256;   APACO  = 16.0  distance and # of slots for P.C.
   PSTRESS=    0.0 pullay stress

  Mass of Ions in am
   POMASS =  12.01
  Ionic Valenz
   ZVAL   =   4.00
  Atomic Wigner-Seitz radii
   RWIGS  =  -1.00
  virtual crystal weights 
   VCA    =   1.00
   NELECT =      32.0000    total number of electrons
   NUPDOWN=      -1.0000    fix difference up-down

 DOS related values:
   EMIN   = -15.00;   EMAX   =  5.00  energy-range for DOS
   EFERMI =   0.00
   ISMEAR =     0;   SIGMA  =   0.01  broadening in eV -4-tet -1-fermi 0-gaus

 Electronic relaxation 2 (details)
   IALGO  =     38    algorithm
   LDIAG  =      T    sub-space diagonalisation (order eigenvalues)
   LSUBROT=      F    optimize rotation matrix (better conditioning)
   TURBO    =      0    0=normal 1=particle mesh
   IRESTART =      0    0=no restart 2=restart with 2 vectors
   NREBOOT  =      0    no. of reboots
   NMIN     =      0    reboot dimension
   EREF     =   0.00    reference energy to select bands
   IMIX   =      4    mixing-type and parameters
     AMIX     =   0.40;   BMIX     =  1.00
     AMIX_MAG =   1.60;   BMIX_MAG =  1.00
     AMIN     =   0.10
     WC   =   100.;   INIMIX=   1;  MIXPRE=   1;  MAXMIX= -45

 Intra band minimization:
   WEIMIN = 0.0000     energy-eigenvalue tresh-hold
   EBREAK =  0.39E-08  absolut break condition
   DEPER  =   0.30     relativ break condition  

   TIME   =   0.40     timestep for ELM

  volume/ion in A,a.u.               =      52.61       355.02
  Fermi-wavevector in a.u.,A,eV,Ry     =   0.693544  1.310609  6.544454  0.481004
  Thomas-Fermi vector in A             =   1.775788

 Write flags
   LWAVE        =      T    write WAVECAR
   LDOWNSAMPLE  =      F    k-point downsampling of WAVECAR
   LCHARG       =      F    write CHGCAR
   LVTOT        =      F    write LOCPOT, total local potential
   LVHAR        =      F    write LOCPOT, Hartree potential only
   LELF         =      F    write electronic localiz. function (ELF)
   LORBIT       =     11    0 simple, 1 ext, 2 COOP (PROOUT), +10 PAW based schemes


 Dipole corrections
   LMONO  =      F    monopole corrections only (constant potential shift)
   LDIPOL =      F    correct potential (dipole corrections)
   IDIPOL =      0    1-x, 2-y, 3-z, 4-all directions 
   EPSILON=  1.0000000 bulk dielectric constant

 Exchange correlation treatment:
   GGA     =    --    GGA type
   LEXCH   =     8    internal setting for exchange type
   VOSKOWN=      0    Vosko Wilk Nusair interpolation
   LHFCALC =     F    Hartree Fock is set to
   LHFONE  =     F    Hartree Fock one center treatment
   AEXX    =    0.0000 exact exchange contribution

 Linear response parameters
   LEPSILON=     F    determine dielectric tensor
   LRPA    =     F    only Hartree local field effects (RPA)
   LNABLA  =     F    use nabla operator in PAW spheres
   LVEL    =     F    velocity operator in full k-point grid
   LINTERFAST=   F  fast interpolation
   KINTER  =     0    interpolate to denser k-point grid
   CSHIFT  =0.1000    complex shift for real part using Kramers Kronig
   OMEGAMAX=  -1.0    maximum frequency
   DEG_THRESHOLD= 0.2000000E-02 threshold for treating states as degnerate
   RTIME   =   -0.100 relaxation time in fs
  (WPLASMAI=    0.000 imaginary part of plasma frequency in eV, 0.658/RTIME)
   DFIELD  = 0.0000000 0.0000000 0.0000000 field for delta impulse in time

 Orbital magnetization related:
   ORBITALMAG=     F  switch on orbital magnetization
   LCHIMAG   =     F  perturbation theory with respect to B field
   DQ        =  0.001000  dq finite difference perturbation B field
   LLRAUG    =     F  two centre corrections for induced B field



--------------------------------------------------------------------------------------------------------


 Static calculation
 charge density and potential remain constant during run
 non-spin polarized calculation
 Variant of blocked Davidson
 Davidson routine will perform the subspace rotation
 perform sub-space diagonalisation
    after iterative eigenvector-optimisation
 no mixing
 using additional bands           48
 reciprocal scheme for non local part
 use partial core corrections
 calculate Harris-corrections to forces   (improved forces if not selfconsistent)
 use gradient corrections 
 WARNING: stress and forces are not correct
  (second derivative of E(xc) not defined)
 use of overlap-Matrix (Vanderbilt PP)
 Gauss-broadening in eV      SIGMA  =   0.01


--------------------------------------------------------------------------------------------------------


  energy-cutoff  :      400.00
  volume of cell :      420.87
      direct lattice vectors                 reciprocal lattice vectors
     4.929416598  0.000000000  0.000000000     0.202863763  0.117123448 -0.000000000
    -2.464708299  4.269000000  0.000000000     0.000000000  0.234246896  0.000000000
     0.000000000  0.000000000 20.000000000     0.000000000 -0.000000000  0.050000000

  length of vectors
     4.929416598  4.929416598 20.000000000     0.234246896  0.234246896  0.050000000



 k-points in units of 2pi/SCALE and weight: K-points along the directions K1-Gamma, 
   0.00000000  0.00000000  0.00000000       0.018
   0.00845333  0.00488053  0.00000000       0.018
   0.01690464  0.00975990  0.00000000       0.018
   0.02535797  0.01464043  0.00000000       0.018
   0.03381130  0.01952097  0.00000000       0.018
   0.04226261  0.02440033  0.00000000       0.018
   0.05071594  0.02928086  0.00000000       0.018
   0.05916927  0.03416140  0.00000000       0.018
   0.06762058  0.03904076  0.00000000       0.018
   0.07607391  0.04392129  0.00000000       0.018
   0.08452724  0.04880183  0.00000000       0.018
   0.09297855  0.05368119  0.00000000       0.018
  -0.10143188 -0.05856172  0.00000000       0.018
  -0.00483019  0.00836613  0.00000000       0.018
  -0.00966037  0.01673226  0.00000000       0.018
  -0.01449056  0.02509838  0.00000000       0.018
  -0.01932074  0.03346451  0.00000000       0.018
  -0.02415093  0.04183064  0.00000000       0.018
  -0.02898112  0.05019442  0.00000000       0.018
  -0.03381130  0.05856055  0.00000000       0.018
  -0.03864149  0.06692668  0.00000000       0.018
  -0.04347168  0.07529281  0.00000000       0.018
  -0.04830186  0.08365894  0.00000000       0.018
  -0.05313002  0.09202624  0.00000000       0.018
  -0.05796021  0.10039236  0.00000000       0.018
  -0.06279039  0.10875849  0.00000000       0.018
  -0.06762058 -0.11712228  0.00000000       0.018
   0.13057935 -0.00807683  0.00000000       0.018
  -0.07694825  0.10096861  0.00000000       0.018
   0.12125167 -0.02423284  0.00000000       0.018
   0.11658783 -0.03231085  0.00000000       0.018
   0.11192400 -0.04038885  0.00000000       0.018
   0.10726219 -0.04846334  0.00000000       0.018
   0.10259835 -0.05654134  0.00000000       0.018
  -0.10492925  0.05250410  0.00000000       0.018
  -0.10959309  0.04442610  0.00000000       0.018
  -0.11425693  0.03634809  0.00000000       0.018
  -0.11892077  0.02827009  0.00000000       0.018
  -0.12358460  0.02019208  0.00000000       0.018
  -0.12824641  0.01211759  0.00000000       0.018
  -0.13291025  0.00403959  0.00000000       0.018
   0.06528967  0.11308503  0.00000000       0.018
   0.06062584  0.10500703  0.00000000       0.018
   0.05596200  0.09692902  0.00000000       0.018
   0.05129816  0.08885102  0.00000000       0.018
   0.04663635  0.08077653  0.00000000       0.018
   0.04197251  0.07269852  0.00000000       0.018
   0.03730867  0.06462052  0.00000000       0.018
   0.03264484  0.05654252  0.00000000       0.018
   0.02798100  0.04846451  0.00000000       0.018
   0.02331716  0.04038651  0.00000000       0.018
   0.01865332  0.03230850  0.00000000       0.018
   0.01399151  0.02423401  0.00000000       0.018
   0.00932768  0.01615601  0.00000000       0.018
   0.00466384  0.00807800  0.00000000       0.018

 k-points in reciprocal lattice and weights: K-points along the directions K1-Gamma, 
   0.00000000  0.00000000  0.00000000       0.018
   0.04167000  0.00000000  0.00000000       0.018
   0.08333000  0.00000000  0.00000000       0.018
   0.12500000  0.00000000  0.00000000       0.018
   0.16667000  0.00000000  0.00000000       0.018
   0.20833000  0.00000000  0.00000000       0.018
   0.25000000  0.00000000  0.00000000       0.018
   0.29167000  0.00000000  0.00000000       0.018
   0.33333000  0.00000000  0.00000000       0.018
   0.37500000  0.00000000  0.00000000       0.018
   0.41667000  0.00000000  0.00000000       0.018
   0.45833000  0.00000000  0.00000000       0.018
  -0.50000000  0.00000000  0.00000000       0.018
  -0.02381000  0.04762000  0.00000000       0.018
  -0.04762000  0.09524000  0.00000000       0.018
  -0.07143000  0.14286000  0.00000000       0.018
  -0.09524000  0.19048000  0.00000000       0.018
  -0.11905000  0.23810000  0.00000000       0.018
  -0.14286000  0.28571000  0.00000000       0.018
  -0.16667000  0.33333000  0.00000000       0.018
  -0.19048000  0.38095000  0.00000000       0.018
  -0.21429000  0.42857000  0.00000000       0.018
  -0.23810000  0.47619000  0.00000000       0.018
  -0.26190000  0.52381000  0.00000000       0.018
  -0.28571000  0.57143000  0.00000000       0.018
  -0.30952000  0.61905000  0.00000000       0.018
  -0.33333000 -0.33333000  0.00000000       0.018
   0.64368000 -0.35632000  0.00000000       0.018
  -0.37931000  0.62069000  0.00000000       0.018
   0.59770000 -0.40230000  0.00000000       0.018
   0.57471000 -0.42529000  0.00000000       0.018
   0.55172000 -0.44828000  0.00000000       0.018
   0.52874000 -0.47126000  0.00000000       0.018
   0.50575000 -0.49425000  0.00000000       0.018
  -0.51724000  0.48276000  0.00000000       0.018
  -0.54023000  0.45977000  0.00000000       0.018
  -0.56322000  0.43678000  0.00000000       0.018
  -0.58621000  0.41379000  0.00000000       0.018
  -0.60920000  0.39080000  0.00000000       0.018
  -0.63218000  0.36782000  0.00000000       0.018
  -0.65517000  0.34483000  0.00000000       0.018
   0.32184000  0.32184000  0.00000000       0.018
   0.29885000  0.29885000  0.00000000       0.018
   0.27586000  0.27586000  0.00000000       0.018
   0.25287000  0.25287000  0.00000000       0.018
   0.22989000  0.22989000  0.00000000       0.018
   0.20690000  0.20690000  0.00000000       0.018
   0.18391000  0.18391000  0.00000000       0.018
   0.16092000  0.16092000  0.00000000       0.018
   0.13793000  0.13793000  0.00000000       0.018
   0.11494000  0.11494000  0.00000000       0.018
   0.09195000  0.09195000  0.00000000       0.018
   0.06897000  0.06897000  0.00000000       0.018
   0.04598000  0.04598000  0.00000000       0.018
   0.02299000  0.02299000  0.00000000       0.018

 position of ions in fractional coordinates (direct lattice) 
   0.33333333  0.16666667  0.50000000
   0.83333333  0.16666667  0.50000000
   0.33333333  0.66666667  0.50000000
   0.83333333  0.66666667  0.50000000
   0.16666667  0.33333333  0.50000000
   0.66666667  0.33333333  0.50000000
   0.16666667  0.83333333  0.50000000
   0.66666667  0.83333333  0.50000000

 position of ions in cartesian coordinates  (Angst):
   1.23235415  0.71150000 10.00000000
   3.69706245  0.71150000 10.00000000
  -0.00000000  2.84600000 10.00000000
   2.46470830  2.84600000 10.00000000
   0.00000000  1.42300000 10.00000000
   2.46470830  1.42300000 10.00000000
  -1.23235415  3.55750000 10.00000000
   1.23235415  3.55750000 10.00000000



--------------------------------------------------------------------------------------------------------


 k-point  1 :   0.0000 0.0000 0.0000  plane waves:    7541
 k-point  2 :   0.0417 0.0000 0.0000  plane waves:    7556
 k-point  3 :   0.0833 0.0000 0.0000  plane waves:    7590
 k-point  4 :   0.1250 0.0000 0.0000  plane waves:    7608
 k-point  5 :   0.1667 0.0000 0.0000  plane waves:    7614
 k-point  6 :   0.2083 0.0000 0.0000  plane waves:    7640
 k-point  7 :   0.2500 0.0000 0.0000  plane waves:    7620
 k-point  8 :   0.2917 0.0000 0.0000  plane waves:    7658
 k-point  9 :   0.3333 0.0000 0.0000  plane waves:    7656
 k-point 10 :   0.3750 0.0000 0.0000  plane waves:    7648
 k-point 11 :   0.4167 0.0000 0.0000  plane waves:    7648
 k-point 12 :   0.4583 0.0000 0.0000  plane waves:    7664
 k-point 13 :  -0.5000 0.0000 0.0000  plane waves:    7690
 k-point 14 :  -0.0238 0.0476 0.0000  plane waves:    7558
 k-point 15 :  -0.0476 0.0952 0.0000  plane waves:    7588
 k-point 16 :  -0.0714 0.1429 0.0000  plane waves:    7618
 k-point 17 :  -0.0952 0.1905 0.0000  plane waves:    7630
 k-point 18 :  -0.1191 0.2381 0.0000  plane waves:    7628
 k-point 19 :  -0.1429 0.2857 0.0000  plane waves:    7614
 k-point 20 :  -0.1667 0.3333 0.0000  plane waves:    7648
 k-point 21 :  -0.1905 0.3810 0.0000  plane waves:    7644
 k-point 22 :  -0.2143 0.4286 0.0000  plane waves:    7670
 k-point 23 :  -0.2381 0.4762 0.0000  plane waves:    7658
 k-point 24 :  -0.2619 0.5238 0.0000  plane waves:    7656
 k-point 25 :  -0.2857 0.5714 0.0000  plane waves:    7662
 k-point 26 :  -0.3095 0.6190 0.0000  plane waves:    7668
 k-point 27 :  -0.3333-0.3333 0.0000  plane waves:    7650
 k-point 28 :   0.6437-0.3563 0.0000  plane waves:    7664
 k-point 29 :  -0.3793 0.6207 0.0000  plane waves:    7660
 k-point 30 :   0.5977-0.4023 0.0000  plane waves:    7676
 k-point 31 :   0.5747-0.4253 0.0000  plane waves:    7658
 k-point 32 :   0.5517-0.4483 0.0000  plane waves:    7654
 k-point 33 :   0.5287-0.4713 0.0000  plane waves:    7646
 k-point 34 :   0.5058-0.4943 0.0000  plane waves:    7672
 k-point 35 :  -0.5172 0.4828 0.0000  plane waves:    7654
 k-point 36 :  -0.5402 0.4598 0.0000  plane waves:    7654
 k-point 37 :  -0.5632 0.4368 0.0000  plane waves:    7662
 k-point 38 :  -0.5862 0.4138 0.0000  plane waves:    7660
 k-point 39 :  -0.6092 0.3908 0.0000  plane waves:    7672
 k-point 40 :  -0.6322 0.3678 0.0000  plane waves:    7668
 k-point 41 :  -0.6552 0.3448 0.0000  plane waves:    7658
 k-point 42 :   0.3218 0.3218 0.0000  plane waves:    7654
 k-point 43 :   0.2989 0.2989 0.0000  plane waves:    7664
 k-point 44 :   0.2759 0.2759 0.0000  plane waves:    7652
 k-point 45 :   0.2529 0.2529 0.0000  plane waves:    7654
 k-point 46 :   0.2299 0.2299 0.0000  plane waves:    7662
 k-point 47 :   0.2069 0.2069 0.0000  plane waves:    7658
 k-point 48 :   0.1839 0.1839 0.0000  plane waves:    7652
 k-point 49 :   0.1609 0.1609 0.0000  plane waves:    7648
 k-point 50 :   0.1379 0.1379 0.0000  plane waves:    7614
 k-point 51 :   0.1149 0.1149 0.0000  plane waves:    7636
 k-point 52 :   0.0920 0.0920 0.0000  plane waves:    7630
 k-point 53 :   0.0690 0.0690 0.0000  plane waves:    7614
 k-point 54 :   0.0460 0.0460 0.0000  plane waves:    7588
 k-point 55 :   0.0230 0.0230 0.0000  plane waves:    7562

 maximum and minimum number of plane-waves per node :      7690     7541

 maximum number of plane-waves:      7690
 maximum index in each direction: 
   IXMAX=    8   IYMAX=    8   IZMAX=   32
   IXMIN=   -8   IYMIN=   -8   IZMIN=  -32


 serial   3D FFT for wavefunctions
 parallel 3D FFT for charge:
    minimum data exchange during FFTs selected (reduces bandwidth)


 total amount of memory used by VASP MPI-rank0   329766. kBytes
=======================================================================

   base      :      30000. kBytes
   nonl-proj :      28053. kBytes
   fftplans  :      19931. kBytes
   grid      :      33406. kBytes
   one-center:         24. kBytes
   wavefun   :     218352. kBytes

     INWAV:  cpu time    0.0001: real time    0.0001
 initial charge density was supplied:
 number of electron      31.9999994 magnetization 
 keeping initial charge density in first step


--------------------------------------------------------------------------------------------------------


 Maximum index for augmentation-charges         1956 (set IRDMAX)


--------------------------------------------------------------------------------------------------------


 First call to EWALD:  gamma=   0.237
 Maximum number of real-space cells 4x 4x 1
 Maximum number of reciprocal cells 2x 2x 7

    FEWALD:  cpu time    0.0018: real time    0.0023


--------------------------------------- Iteration      1(   1)  ---------------------------------------


    POTLOK:  cpu time    0.3330: real time    0.3445
    SETDIJ:  cpu time    0.0118: real time    0.0196
     EDDAV:  cpu time   45.1913: real time   45.5094
       DOS:  cpu time    0.0045: real time    0.0062
    --------------------------------------------
      LOOP:  cpu time   45.5406: real time   45.8797

 eigenvalue-minimisations  :  7048
 total energy-change (2. order) : 0.1525471E+03  (-0.8217473E+03)
 number of electron      31.9999994 magnetization 
 augmentation part       31.9999994 magnetization 

 Free energy of the ion-electron system (eV)
  ---------------------------------------------------
  alpha Z        PSCENC =        12.49161259
  Ewald energy   TEWEN  =      5185.64168854
  -Hartree energ DENC   =     -6173.32113961
  -exchange      EXHF   =         0.00000000
  -V(xc)+E(xc)   XCENC  =       110.21023256
  PAW double counting   =      3435.46459453    -3440.87518979
  entropy T*S    EENTRO =        -0.00017296
  eigenvalues    EBANDS =      -154.08236252
  atomic energy  EATOM  =      1177.01779097
  Solvation  Ediel_sol  =         0.00000000
  ---------------------------------------------------
  free energy    TOTEN  =       152.54705431 eV

  energy without entropy =      152.54722727  energy(sigma->0) =      152.54714079


--------------------------------------------------------------------------------------------------------




--------------------------------------- Iteration      1(   2)  ---------------------------------------


     EDDAV:  cpu time   57.2158: real time   57.3523
       DOS:  cpu time    0.0015: real time    0.0015
    --------------------------------------------
      LOOP:  cpu time   57.2173: real time   57.3538

 eigenvalue-minimisations  :  9656
 total energy-change (2. order) :-0.2022566E+03  (-0.1669903E+03)
 number of electron      31.9999994 magnetization 
 augmentation part       31.9999994 magnetization 

 Free energy of the ion-electron system (eV)
  ---------------------------------------------------
  alpha Z        PSCENC =        12.49161259
  Ewald energy   TEWEN  =      5185.64168854
  -Hartree energ DENC   =     -6173.32113961
  -exchange      EXHF   =         0.00000000
  -V(xc)+E(xc)   XCENC  =       110.21023256
  PAW double counting   =      3435.46459453    -3440.87518979
  entropy T*S    EENTRO =        -0.00000000
  eigenvalues    EBANDS =      -356.33908720
  atomic energy  EATOM  =      1177.01779097
  Solvation  Ediel_sol  =         0.00000000
  ---------------------------------------------------
  free energy    TOTEN  =       -49.70949741 eV

  energy without entropy =      -49.70949741  energy(sigma->0) =      -49.70949741


--------------------------------------------------------------------------------------------------------




--------------------------------------- Iteration      1(   3)  ---------------------------------------


     EDDAV:  cpu time   60.5912: real time   61.6752
       DOS:  cpu time    0.0022: real time    0.0022
    --------------------------------------------
      LOOP:  cpu time   60.5934: real time   61.6774

 eigenvalue-minimisations  :  9592
 total energy-change (2. order) :-0.2301051E+02  (-0.2264687E+02)
 number of electron      31.9999994 magnetization 
 augmentation part       31.9999994 magnetization 

 Free energy of the ion-electron system (eV)
  ---------------------------------------------------
  alpha Z        PSCENC =        12.49161259
  Ewald energy   TEWEN  =      5185.64168854
  -Hartree energ DENC   =     -6173.32113961
  -exchange      EXHF   =         0.00000000
  -V(xc)+E(xc)   XCENC  =       110.21023256
  PAW double counting   =      3435.46459453    -3440.87518979
  entropy T*S    EENTRO =        -0.00010046
  eigenvalues    EBANDS =      -379.34949501
  atomic energy  EATOM  =      1177.01779097
  Solvation  Ediel_sol  =         0.00000000
  ---------------------------------------------------
  free energy    TOTEN  =       -72.72000568 eV

  energy without entropy =      -72.71990522  energy(sigma->0) =      -72.71995545


--------------------------------------------------------------------------------------------------------




--------------------------------------- Iteration      1(   4)  ---------------------------------------


     EDDAV:  cpu time   54.7443: real time   54.9040
       DOS:  cpu time    0.0033: real time    0.0034
    --------------------------------------------
      LOOP:  cpu time   54.7476: real time   54.9073

 eigenvalue-minimisations  :  8968
 total energy-change (2. order) :-0.3612605E+00  (-0.3604059E+00)
 number of electron      31.9999994 magnetization 
 augmentation part       31.9999994 magnetization 

 Free energy of the ion-electron system (eV)
  ---------------------------------------------------
  alpha Z        PSCENC =        12.49161259
  Ewald energy   TEWEN  =      5185.64168854
  -Hartree energ DENC   =     -6173.32113961
  -exchange      EXHF   =         0.00000000
  -V(xc)+E(xc)   XCENC  =       110.21023256
  PAW double counting   =      3435.46459453    -3440.87518979
  entropy T*S    EENTRO =        -0.00020516
  eigenvalues    EBANDS =      -379.71065086
  atomic energy  EATOM  =      1177.01779097
  Solvation  Ediel_sol  =         0.00000000
  ---------------------------------------------------
  free energy    TOTEN  =       -73.08126622 eV

  energy without entropy =      -73.08106107  energy(sigma->0) =      -73.08116364


--------------------------------------------------------------------------------------------------------




--------------------------------------- Iteration      1(   5)  ---------------------------------------


     EDDAV:  cpu time   56.5964: real time   56.7244
       DOS:  cpu time    0.0021: real time    0.0021
    --------------------------------------------
      LOOP:  cpu time   56.5984: real time   56.7265

 eigenvalue-minimisations  :  9432
 total energy-change (2. order) :-0.5872383E-02  (-0.5870275E-02)
 number of electron      31.9999994 magnetization 
 augmentation part       31.9999994 magnetization 

 Free energy of the ion-electron system (eV)
  ---------------------------------------------------
  alpha Z        PSCENC =        12.49161259
  Ewald energy   TEWEN  =      5185.64168854
  -Hartree energ DENC   =     -6173.32113961
  -exchange      EXHF   =         0.00000000
  -V(xc)+E(xc)   XCENC  =       110.21023256
  PAW double counting   =      3435.46459453    -3440.87518979
  entropy T*S    EENTRO =        -0.00020516
  eigenvalues    EBANDS =      -379.71652324
  atomic energy  EATOM  =      1177.01779097
  Solvation  Ediel_sol  =         0.00000000
  ---------------------------------------------------
  free energy    TOTEN  =       -73.08713861 eV

  energy without entropy =      -73.08693345  energy(sigma->0) =      -73.08703603


--------------------------------------------------------------------------------------------------------




--------------------------------------- Iteration      1(   6)  ---------------------------------------


     EDDAV:  cpu time   56.4145: real time   56.5214
       DOS:  cpu time    0.0033: real time    0.0033
    --------------------------------------------
      LOOP:  cpu time   56.4178: real time   56.5247

 eigenvalue-minimisations  :  9472
 total energy-change (2. order) :-0.1435689E-03  (-0.1435252E-03)
 number of electron      31.9999994 magnetization 
 augmentation part       31.9999994 magnetization 

 Free energy of the ion-electron system (eV)
  ---------------------------------------------------
  alpha Z        PSCENC =        12.49161259
  Ewald energy   TEWEN  =      5185.64168854
  -Hartree energ DENC   =     -6173.32113961
  -exchange      EXHF   =         0.00000000
  -V(xc)+E(xc)   XCENC  =       110.21023256
  PAW double counting   =      3435.46459453    -3440.87518979
  entropy T*S    EENTRO =        -0.00020516
  eigenvalues    EBANDS =      -379.71666681
  atomic energy  EATOM  =      1177.01779097
  Solvation  Ediel_sol  =         0.00000000
  ---------------------------------------------------
  free energy    TOTEN  =       -73.08728217 eV

  energy without entropy =      -73.08707702  energy(sigma->0) =      -73.08717960


--------------------------------------------------------------------------------------------------------




--------------------------------------- Iteration      1(   7)  ---------------------------------------


     EDDAV:  cpu time   58.3958: real time   58.5047
       DOS:  cpu time    0.0030: real time    0.0030
    --------------------------------------------
      LOOP:  cpu time   58.3988: real time   58.5077

 eigenvalue-minimisations  :  9840
 total energy-change (2. order) :-0.2094565E-05  (-0.2094409E-05)
 number of electron      31.9999994 magnetization 
 augmentation part       31.9999994 magnetization 

 Free energy of the ion-electron system (eV)
  ---------------------------------------------------
  alpha Z        PSCENC =        12.49161259
  Ewald energy   TEWEN  =      5185.64168854
  -Hartree energ DENC   =     -6173.32113961
  -exchange      EXHF   =         0.00000000
  -V(xc)+E(xc)   XCENC  =       110.21023256
  PAW double counting   =      3435.46459453    -3440.87518979
  entropy T*S    EENTRO =        -0.00020516
  eigenvalues    EBANDS =      -379.71666890
  atomic energy  EATOM  =      1177.01779097
  Solvation  Ediel_sol  =         0.00000000
  ---------------------------------------------------
  free energy    TOTEN  =       -73.08728427 eV

  energy without entropy =      -73.08707911  energy(sigma->0) =      -73.08718169


--------------------------------------------------------------------------------------------------------




--------------------------------------- Iteration      1(   8)  ---------------------------------------


     EDDAV:  cpu time   53.4894: real time   53.5810
       DOS:  cpu time    0.0021: real time    0.0021
    --------------------------------------------
      LOOP:  cpu time   53.4914: real time   53.5831

 eigenvalue-minimisations  :  8784
 total energy-change (2. order) :-0.5480479E-07  (-0.5483683E-07)
 number of electron      31.9999994 magnetization 
 augmentation part       31.9999994 magnetization 

 Free energy of the ion-electron system (eV)
  ---------------------------------------------------
  alpha Z        PSCENC =        12.49161259
  Ewald energy   TEWEN  =      5185.64168854
  -Hartree energ DENC   =     -6173.32113961
  -exchange      EXHF   =         0.00000000
  -V(xc)+E(xc)   XCENC  =       110.21023256
  PAW double counting   =      3435.46459453    -3440.87518979
  entropy T*S    EENTRO =        -0.00020516
  eigenvalues    EBANDS =      -379.71666896
  atomic energy  EATOM  =      1177.01779097
  Solvation  Ediel_sol  =         0.00000000
  ---------------------------------------------------
  free energy    TOTEN  =       -73.08728432 eV

  energy without entropy =      -73.08707917  energy(sigma->0) =      -73.08718175


--------------------------------------------------------------------------------------------------------




 average (electrostatic) potential at core
  the test charge radii are     0.6991
  (the norm of the test charge is              1.0000)
       1 -58.1993       2 -58.1993       3 -58.1993       4 -58.1993       5 -58.1993
       6 -58.1993       7 -58.1993       8 -58.1993



 E-fermi :  -2.7427     XC(G=0):  -2.1869     alpha+bet : -1.9051


 k-point     1 :       0.0000    0.0000    0.0000
  band No.  band energies     occupation 
      1     -22.2765      2.00000
      2     -17.0285      2.00000
      3     -17.0285      2.00000
      4     -17.0284      2.00000
      5     -15.9871      2.00000
      6     -15.9871      2.00000
      7     -15.9871      2.00000
      8     -10.3726      2.00000
      9      -9.1582      2.00000
     10      -9.1582      2.00000
     11      -9.1581      2.00000
     12      -5.7731      2.00000
     13      -5.7731      2.00000
     14      -5.1068      2.00000
     15      -5.1068      2.00000
     16      -5.1067      2.00000
     17      -1.0608      0.00000
     18      -1.0608      0.00000
     19      -1.0608      0.00000
     20       0.5174      0.00000
     21       1.3068      0.00000
     22       1.6300      0.00000
     23       2.5497      0.00000
     24       3.0199      0.00000
     25       4.6449      0.00000
     26       4.6449      0.00000
     27       4.6450      0.00000
     28       4.6846      0.00000
     29       5.3069      0.00000
     30       5.6115      0.00000
     31       5.6115      0.00000
     32       7.6395      0.00000
     33       8.3793      0.00000
     34       8.3793      0.00000
     35       8.3793      0.00000
     36       8.4349      0.00000
     37       8.5329      0.00000
     38       8.5330      0.00000
     39       8.5330      0.00000
     40       8.7237      0.00000
     41       9.2231      0.00000
     42       9.2231      0.00000
     43       9.2231      0.00000
     44       9.4219      0.00000
     45       9.4219      0.00000
     46       9.4219      0.00000
     47       9.7811      0.00000
     48       9.8507      0.00000
     49       9.8507      0.00000
     50       9.8507      0.00000
     51       9.8579      0.00000
     52       9.8579      0.00000
     53       9.8579      0.00000
     54      10.5387      0.00000
     55      10.5387      0.00000
     56      10.5387      0.00000
     57      10.7149      0.00000
     58      10.7149      0.00000
     59      10.7149      0.00000
     60      11.1178      0.00000
     61      11.1178      0.00000
     62      11.1208      0.00000
     63      11.1521      0.00000
     64      11.1521      0.00000

 k-point     2 :       0.0417    0.0000    0.0000
  band No.  band energies     occupation 
      1     -22.2662      2.00000
      2     -17.1949      2.00000
      3     -17.0684      2.00000
      4     -17.0684      2.00000
      5     -15.9302      2.00000
      6     -15.9302      2.00000
      7     -15.8055      2.00000
      8     -10.3603      2.00000
      9      -9.1906      2.00000
     10      -9.1906      2.00000
     11      -9.1481      2.00000
     12      -5.8154      2.00000
     13      -5.7957      2.00000
     14      -5.1737      2.00000
     15      -5.1147      2.00000
     16      -5.1147      2.00000
     17      -1.0421      0.00000
     18      -1.0421      0.00000
     19      -0.9779      0.00000
     20       0.5313      0.00000
     21       1.3210      0.00000
     22       1.6443      0.00000
     23       2.5639      0.00000
     24       3.0340      0.00000
     25       4.6498      0.00000
     26       4.6933      0.00000
     27       4.6933      0.00000
     28       4.6986      0.00000
     29       5.3199      0.00000
     30       5.6233      0.00000
     31       5.6580      0.00000
     32       7.6533      0.00000
     33       7.8220      0.00000
     34       8.1392      0.00000
     35       8.1392      0.00000
     36       8.4491      0.00000
     37       8.6866      0.00000
     38       8.6886      0.00000
     39       8.7963      0.00000
     40       8.7963      0.00000
     41       8.9967      0.00000
     42       8.9967      0.00000
     43       9.1053      0.00000
     44       9.1885      0.00000
     45       9.5267      0.00000
     46       9.5267      0.00000
     47       9.6577      0.00000
     48       9.6577      0.00000
     49       9.7993      0.00000
     50       9.8794      0.00000
     51      10.0762      0.00000
     52      10.2102      0.00000
     53      10.2102      0.00000
     54      10.3080      0.00000
     55      10.3080      0.00000
     56      10.4806      0.00000
     57      10.5530      0.00000
     58      10.8150      0.00000
     59      10.8150      0.00000
     60      10.9680      0.00000
     61      10.9680      0.00000
     62      11.2712      0.00000
     63      11.3937      0.00000
     64      11.4807      0.00000

 k-point     3 :       0.0833    0.0000    0.0000
  band No.  band energies     occupation 
      1     -22.2354      2.00000
      2     -17.5337      2.00000
      3     -17.1680      2.00000
      4     -17.1680      2.00000
      5     -15.7799      2.00000
      6     -15.7798      2.00000
      7     -15.4211      2.00000
      8     -10.3235      2.00000
      9      -9.2865      2.00000
     10      -9.2865      2.00000
     11      -9.1175      2.00000
     12      -5.9420      2.00000
     13      -5.8622      2.00000
     14      -5.3591      2.00000
     15      -5.1369      2.00000
     16      -5.1368      2.00000
     17      -0.9873      0.00000
     18      -0.9873      0.00000
     19      -0.7446      0.00000
     20       0.5731      0.00000
     21       1.3633      0.00000
     22       1.6871      0.00000
     23       2.6063      0.00000
     24       3.0763      0.00000
     25       4.6649      0.00000
     26       4.7407      0.00000
     27       4.8369      0.00000
     28       4.8369      0.00000
     29       5.3585      0.00000
     30       5.6422      0.00000
     31       5.7922      0.00000
     32       7.2168      0.00000
     33       7.6946      0.00000
     34       7.8607      0.00000
     35       7.8607      0.00000
     36       8.0795      0.00000
     37       8.4917      0.00000
     38       8.5425      0.00000
     39       8.5814      0.00000
     40       8.7119      0.00000
     41       8.7119      0.00000
     42       9.1410      0.00000
     43       9.1410      0.00000
     44       9.2309      0.00000
     45       9.2309      0.00000
     46       9.3481      0.00000
     47       9.7593      0.00000
     48       9.8552      0.00000
     49       9.8655      0.00000
     50       9.8886      0.00000
     51       9.8886      0.00000
     52      10.1177      0.00000
     53      10.1177      0.00000
     54      10.5214      0.00000
     55      10.5214      0.00000
     56      10.5953      0.00000
     57      10.5953      0.00000
     58      10.6173      0.00000
     59      11.2771      0.00000
     60      11.2902      0.00000
     61      11.2902      0.00000
     62      11.3442      0.00000
     63      11.4336      0.00000
     64      11.8506      0.00000

 k-point     4 :       0.1250    0.0000    0.0000
  band No.  band energies     occupation 
      1     -22.1841      2.00000
      2     -17.9114      2.00000
      3     -17.2938      2.00000
      4     -17.2938      2.00000
      5     -15.5701      2.00000
      6     -15.5700      2.00000
      7     -14.9672      2.00000
      8     -10.2620      2.00000
      9      -9.4404      2.00000
     10      -9.4403      2.00000
     11      -9.0665      2.00000
     12      -6.1480      2.00000
     13      -5.9696      2.00000
     14      -5.6285      2.00000
     15      -5.1707      2.00000
     16      -5.1707      2.00000
     17      -0.8999      0.00000
     18      -0.8999      0.00000
     19      -0.3938      0.00000
     20       0.6428      0.00000
     21       1.4340      0.00000
     22       1.7585      0.00000
     23       2.6771      0.00000
     24       3.1469      0.00000
     25       4.6901      0.00000
     26       4.8108      0.00000
     27       5.0703      0.00000
     28       5.0703      0.00000
     29       5.4215      0.00000
     30       5.6699      0.00000
     31       6.0104      0.00000
     32       6.6340      0.00000
     33       7.4915      0.00000
     34       7.6049      0.00000
     35       7.6049      0.00000
     36       7.7635      0.00000
     37       7.9292      0.00000
     38       8.4028      0.00000
     39       8.4433      0.00000
     40       8.4433      0.00000
     41       8.5626      0.00000
     42       8.7566      0.00000
     43       8.9553      0.00000
     44       8.9553      0.00000
     45       9.2494      0.00000
     46       9.5145      0.00000
     47       9.5145      0.00000
     48       9.7047      0.00000
     49       9.7047      0.00000
     50       9.9509      0.00000
     51      10.2574      0.00000
     52      10.2574      0.00000
     53      10.3552      0.00000
     54      10.3552      0.00000
     55      10.4450      0.00000
     56      10.6983      0.00000
     57      11.0060      0.00000
     58      11.0060      0.00000
     59      11.3852      0.00000
     60      11.4665      0.00000
     61      11.4940      0.00000
     62      11.4941      0.00000
     63      11.5003      0.00000
     64      11.8879      0.00000

 k-point     5 :       0.1667    0.0000    0.0000
  band No.  band energies     occupation 
      1     -22.1123      2.00000
      2     -18.2916      2.00000
      3     -17.4242      2.00000
      4     -17.4242      2.00000
      5     -15.3230      2.00000
      6     -15.3230      2.00000
      7     -14.4811      2.00000
      8     -10.1762      2.00000
      9      -9.6449      2.00000
     10      -9.6449      2.00000
     11      -8.9958      2.00000
     12      -6.4257      2.00000
     13      -6.1122      2.00000
     14      -5.9512      2.00000
     15      -5.2136      2.00000
     16      -5.2136      2.00000
     17      -0.7845      0.00000
     18      -0.7845      0.00000
     19       0.0389      0.00000
     20       0.7404      0.00000
     21       1.5328      0.00000
     22       1.8585      0.00000
     23       2.7762      0.00000
     24       3.2458      0.00000
     25       4.7239      0.00000
     26       4.9089      0.00000
     27       5.3868      0.00000
     28       5.3868      0.00000
     29       5.5040      0.00000
     30       5.7042      0.00000
     31       6.0768      0.00000
     32       6.3105      0.00000
     33       6.9266      0.00000
     34       7.3443      0.00000
     35       7.3750      0.00000
     36       7.3750      0.00000
     37       7.8596      0.00000
     38       8.1596      0.00000
     39       8.1873      0.00000
     40       8.1960      0.00000
     41       8.1960      0.00000
     42       8.6616      0.00000
     43       8.6745      0.00000
     44       8.7130      0.00000
     45       8.7130      0.00000
     46       9.4656      0.00000
     47       9.4656      0.00000
     48       9.8875      0.00000
     49       9.8875      0.00000
     50      10.0290      0.00000
     51      10.0290      0.00000
     52      10.0897      0.00000
     53      10.1952      0.00000
     54      10.6054      0.00000
     55      10.6054      0.00000
     56      10.8940      0.00000
     57      11.1231      0.00000
     58      11.4431      0.00000
     59      11.4431      0.00000
     60      11.4448      0.00000
     61      11.4448      0.00000
     62      11.5932      0.00000
     63      11.9634      0.00000
     64      12.1397      0.00000

 k-point     6 :       0.2083    0.0000    0.0000
  band No.  band energies     occupation 
      1     -22.0200      2.00000
      2     -18.6630      2.00000
      3     -17.5484      2.00000
      4     -17.5484      2.00000
      5     -15.0509      2.00000
      6     -15.0509      2.00000
      7     -13.9751      2.00000
      8     -10.0664      2.00000
      9      -9.8925      2.00000
     10      -9.8925      2.00000
     11      -8.9056      2.00000
     12      -6.7655      2.00000
     13      -6.3013      2.00000
     14      -6.2837      2.00000
     15      -5.2620      2.00000
     16      -5.2620      2.00000
     17      -0.6503      0.00000
     18      -0.6502      0.00000
     19       0.5278      0.00000
     20       0.8658      0.00000
     21       1.6598      0.00000
     22       1.9871      0.00000
     23       2.9035      0.00000
     24       3.3729      0.00000
     25       4.7620      0.00000
     26       5.0348      0.00000
     27       5.5496      0.00000
     28       5.5867      0.00000
     29       5.7568      0.00000
     30       5.7758      0.00000
     31       5.7759      0.00000
     32       6.3867      0.00000
     33       6.6827      0.00000
     34       6.7879      0.00000
     35       7.1724      0.00000
     36       7.1724      0.00000
     37       7.6434      0.00000
     38       7.8521      0.00000
     39       7.9714      0.00000
     40       7.9714      0.00000
     41       7.9861      0.00000
     42       8.1265      0.00000
     43       8.4991      0.00000
     44       8.4991      0.00000
     45       8.7885      0.00000
     46       9.2443      0.00000
     47       9.2443      0.00000
     48       9.6798      0.00000
     49       9.8032      0.00000
     50       9.8032      0.00000
     51      10.2730      0.00000
     52      10.2887      0.00000
     53      10.2887      0.00000
     54      10.3609      0.00000
     55      10.6781      0.00000
     56      10.6781      0.00000
     57      11.4690      0.00000
     58      11.4690      0.00000
     59      11.7121      0.00000
     60      11.7630      0.00000
     61      11.9074      0.00000
     62      11.9076      0.00000
     63      12.0038      0.00000
     64      12.0044      0.00000

 k-point     7 :       0.2500    0.0000    0.0000
  band No.  band energies     occupation 
      1     -21.9074      2.00000
      2     -19.0211      2.00000
      3     -17.6610      2.00000
      4     -17.6609      2.00000
      5     -14.7611      2.00000
      6     -14.7610      2.00000
      7     -13.4537      2.00000
      8     -10.1734      2.00000
      9     -10.1734      2.00000
     10      -9.9324      2.00000
     11      -8.7959      2.00000
     12      -7.1582      2.00000
     13      -6.6611      2.00000
     14      -6.4773      2.00000
     15      -5.3114      2.00000
     16      -5.3114      2.00000
     17      -0.5051      0.00000
     18      -0.5051      0.00000
     19       1.0192      0.00000
     20       1.0557      0.00000
     21       1.8149      0.00000
     22       2.1442      0.00000
     23       3.0591      0.00000
     24       3.5282      0.00000
     25       4.7778      0.00000
     26       5.0803      0.00000
     27       5.1885      0.00000
     28       5.6296      0.00000
     29       5.8645      0.00000
     30       5.8729      0.00000
     31       6.2256      0.00000
     32       6.2256      0.00000
     33       6.2600      0.00000
     34       7.0000      0.00000
     35       7.0000      0.00000
     36       7.1227      0.00000
     37       7.1258      0.00000
     38       7.4963      0.00000
     39       7.6060      0.00000
     40       7.7706      0.00000
     41       7.7706      0.00000
     42       8.1359      0.00000
     43       8.3137      0.00000
     44       8.3137      0.00000
     45       8.9431      0.00000
     46       9.0461      0.00000
     47       9.0461      0.00000
     48       9.1813      0.00000
     49       9.6222      0.00000
     50       9.6222      0.00000
     51       9.8484      0.00000
     52      10.5018      0.00000
     53      10.5685      0.00000
     54      10.5685      0.00000
     55      10.6542      0.00000
     56      10.6542      0.00000
     57      11.5902      0.00000
     58      11.5902      0.00000
     59      11.8234      0.00000
     60      11.8234      0.00000
     61      11.8568      0.00000
     62      11.8948      0.00000
     63      12.3707      0.00000
     64      12.3977      0.00000

 k-point     8 :       0.2917    0.0000    0.0000
  band No.  band energies     occupation 
      1     -21.7744      2.00000
      2     -19.3636      2.00000
      3     -17.7589      2.00000
      4     -17.7589      2.00000
      5     -14.4596      2.00000
      6     -14.4596      2.00000
      7     -12.9208      2.00000
      8     -10.4774      2.00000
      9     -10.4774      2.00000
     10      -9.7746      2.00000
     11      -8.6680      2.00000
     12      -7.5959      2.00000
     13      -7.0215      2.00000
     14      -6.6869      2.00000
     15      -5.3590      2.00000
     16      -5.3590      2.00000
     17      -0.3580      0.00000
     18      -0.3580      0.00000
     19       1.2003      0.00000
     20       1.6084      0.00000
     21       1.9981      0.00000
     22       2.3299      0.00000
     23       3.2428      0.00000
     24       3.7117      0.00000
     25       4.5021      0.00000
     26       4.9357      0.00000
     27       5.3697      0.00000
     28       5.3859      0.00000
     29       5.6252      0.00000
     30       5.7610      0.00000
     31       6.0278      0.00000
     32       6.6351      0.00000
     33       6.6845      0.00000
     34       6.6845      0.00000
     35       6.8982      0.00000
     36       6.8982      0.00000
     37       7.0911      0.00000
     38       7.1133      0.00000
     39       7.5944      0.00000
     40       7.5944      0.00000
     41       7.6188      0.00000
     42       8.1569      0.00000
     43       8.1569      0.00000
     44       8.3141      0.00000
     45       8.7047      0.00000
     46       8.8731      0.00000
     47       8.8731      0.00000
     48       9.1253      0.00000
     49       9.3621      0.00000
     50       9.4682      0.00000
     51       9.4682      0.00000
     52      10.3990      0.00000
     53      10.3990      0.00000
     54      10.7693      0.00000
     55      10.9579      0.00000
     56      10.9580      0.00000
     57      11.4893      0.00000
     58      11.6449      0.00000
     59      11.6449      0.00000
     60      11.6766      0.00000
     61      11.6766      0.00000
     62      12.0267      0.00000
     63      12.4382      0.00000
     64      12.8962      0.00000

 k-point     9 :       0.3333    0.0000    0.0000
  band No.  band energies     occupation 
      1     -21.6213      2.00000
      2     -19.6892      2.00000
      3     -17.8405      2.00000
      4     -17.8405      2.00000
      5     -14.1533      2.00000
      6     -14.1533      2.00000
      7     -12.3788      2.00000
      8     -10.7929      2.00000
      9     -10.7928      2.00000
     10      -9.5935      2.00000
     11      -8.5225      2.00000
     12      -8.0683      2.00000
     13      -7.3746      2.00000
     14      -6.9062      2.00000
     15      -5.4015      2.00000
     16      -5.4015      2.00000
     17      -0.2187      0.00000
     18      -0.2187      0.00000
     19       1.4093      0.00000
     20       2.1771      0.00000
     21       2.2091      0.00000
     22       2.5442      0.00000
     23       3.4544      0.00000
     24       3.9232      0.00000
     25       4.0659      0.00000
     26       4.9269      0.00000
     27       4.9822      0.00000
     28       5.2935      0.00000
     29       5.5773      0.00000
     30       5.5938      0.00000
     31       6.1720      0.00000
     32       6.2297      0.00000
     33       6.6459      0.00000
     34       6.6490      0.00000
     35       6.6974      0.00000
     36       6.6974      0.00000
     37       7.3117      0.00000
     38       7.3118      0.00000
     39       7.4445      0.00000
     40       7.4445      0.00000
     41       8.0292      0.00000
     42       8.0292      0.00000
     43       8.1656      0.00000
     44       8.2524      0.00000
     45       8.5193      0.00000
     46       8.7270      0.00000
     47       8.7270      0.00000
     48       8.9028      0.00000
     49       9.3350      0.00000
     50       9.3423      0.00000
     51       9.3423      0.00000
     52      10.2292      0.00000
     53      10.2292      0.00000
     54      11.0735      0.00000
     55      11.0782      0.00000
     56      11.1163      0.00000
     57      11.1163      0.00000
     58      11.5659      0.00000
     59      11.5659      0.00000
     60      11.6119      0.00000
     61      11.6119      0.00000
     62      11.9915      0.00000
     63      12.2209      0.00000
     64      13.1513      0.00000

 k-point    10 :       0.3750    0.0000    0.0000
  band No.  band energies     occupation 
      1     -21.4481      2.00000
      2     -19.9971      2.00000
      3     -17.9047      2.00000
      4     -17.9047      2.00000
      5     -13.8524      2.00000
      6     -13.8524      2.00000
      7     -11.8304      2.00000
      8     -11.1050      2.00000
      9     -11.1050      2.00000
     10      -9.3891      2.00000
     11      -8.5688      2.00000
     12      -8.3606      2.00000
     13      -7.7161      2.00000
     14      -7.1305      2.00000
     15      -5.4368      2.00000
     16      -5.4368      2.00000
     17      -0.0954      0.00000
     18      -0.0954      0.00000
     19       1.6460      0.00000
     20       2.4480      0.00000
     21       2.7525      0.00000
     22       2.7870      0.00000
     23       3.6420      0.00000
     24       3.6939      0.00000
     25       4.1626      0.00000
     26       4.4980      0.00000
     27       4.8368      0.00000
     28       5.0663      0.00000
     29       5.5428      0.00000
     30       5.7366      0.00000
     31       5.8025      0.00000
     32       6.1735      0.00000
     33       6.2137      0.00000
     34       6.4635      0.00000
     35       6.6092      0.00000
     36       6.6092      0.00000
     37       7.3232      0.00000
     38       7.3232      0.00000
     39       7.8254      0.00000
     40       7.8678      0.00000
     41       7.8678      0.00000
     42       7.9470      0.00000
     43       7.9470      0.00000
     44       8.4706      0.00000
     45       8.6098      0.00000
     46       8.6098      0.00000
     47       8.7515      0.00000
     48       8.7568      0.00000
     49       9.2453      0.00000
     50       9.2453      0.00000
     51       9.5720      0.00000
     52      10.0824      0.00000
     53      10.0824      0.00000
     54      10.6793      0.00000
     55      11.0467      0.00000
     56      11.0467      0.00000
     57      11.4042      0.00000
     58      11.4811      0.00000
     59      11.4811      0.00000
     60      11.5447      0.00000
     61      11.5447      0.00000
     62      11.5661      0.00000
     63      12.4388      0.00000
     64      12.8874      0.00000

 k-point    11 :       0.4167    0.0000    0.0000
  band No.  band energies     occupation 
      1     -21.2550      2.00000
      2     -20.2868      2.00000
      3     -17.9510      2.00000
      4     -17.9510      2.00000
      5     -13.5760      2.00000
      6     -13.5759      2.00000
      7     -11.3923      2.00000
      8     -11.3923      2.00000
      9     -11.2775      2.00000
     10      -9.1621      2.00000
     11      -9.0902      2.00000
     12      -8.1830      2.00000
     13      -8.0427      2.00000
     14      -7.3547      2.00000
     15      -5.4632      2.00000
     16      -5.4632      2.00000
     17      -0.0010      0.00000
     18      -0.0010      0.00000
     19       1.9104      0.00000
     20       2.7141      0.00000
     21       3.0584      0.00000
     22       3.2421      0.00000
     23       3.3170      0.00000
     24       3.9603      0.00000
     25       4.1106      0.00000
     26       4.4281      0.00000
     27       4.4293      0.00000
     28       5.1351      0.00000
     29       5.3300      0.00000
     30       5.4805      0.00000
     31       5.6262      0.00000
     32       5.8098      0.00000
     33       6.1017      0.00000
     34       6.5426      0.00000
     35       6.5426      0.00000
     36       6.7270      0.00000
     37       7.2331      0.00000
     38       7.2331      0.00000
     39       7.4246      0.00000
     40       7.8542      0.00000
     41       7.8542      0.00000
     42       8.0660      0.00000
     43       8.4808      0.00000
     44       8.4808      0.00000
     45       8.5237      0.00000
     46       8.5237      0.00000
     47       9.0103      0.00000
     48       9.1802      0.00000
     49       9.1802      0.00000
     50       9.3831      0.00000
     51       9.8365      0.00000
     52       9.9702      0.00000
     53       9.9702      0.00000
     54      10.2989      0.00000
     55      10.7551      0.00000
     56      10.7551      0.00000
     57      11.1665      0.00000
     58      11.4067      0.00000
     59      11.4067      0.00000
     60      11.4807      0.00000
     61      11.4807      0.00000
     62      11.7519      0.00000
     63      12.1519      0.00000
     64      12.6787      0.00000

 k-point    12 :       0.4583    0.0000    0.0000
  band No.  band energies     occupation 
      1     -21.0421      2.00000
      2     -20.5577      2.00000
      3     -17.9789      2.00000
      4     -17.9789      2.00000
      5     -13.3626      2.00000
      6     -13.3626      2.00000
      7     -11.6131      2.00000
      8     -11.6131      2.00000
      9     -10.7239      2.00000
     10      -9.6263      2.00000
     11      -8.9133      2.00000
     12      -8.3521      2.00000
     13      -7.9916      2.00000
     14      -7.5750      2.00000
     15      -5.4799      2.00000
     16      -5.4799      2.00000
     17       0.0596      0.00000
     18       0.0596      0.00000
     19       2.2023      0.00000
     20       2.8686      0.00000
     21       3.0064      0.00000
     22       3.3583      0.00000
     23       3.6114      0.00000
     24       4.0129      0.00000
     25       4.0434      0.00000
     26       4.2499      0.00000
     27       4.7215      0.00000
     28       4.9554      0.00000
     29       5.1032      0.00000
     30       5.1901      0.00000
     31       5.4093      0.00000
     32       5.4555      0.00000
     33       6.3853      0.00000
     34       6.5022      0.00000
     35       6.5022      0.00000
     36       7.0193      0.00000
     37       7.0505      0.00000
     38       7.1775      0.00000
     39       7.1775      0.00000
     40       7.6891      0.00000
     41       7.8123      0.00000
     42       7.8123      0.00000
     43       8.4710      0.00000
     44       8.4710      0.00000
     45       9.0091      0.00000
     46       9.0091      0.00000
     47       9.2022      0.00000
     48       9.2022      0.00000
     49       9.2949      0.00000
     50       9.9004      0.00000
     51       9.9004      0.00000
     52       9.9404      0.00000
     53      10.0416      0.00000
     54      10.1282      0.00000
     55      10.3093      0.00000
     56      10.3094      0.00000
     57      10.7935      0.00000
     58      11.3589      0.00000
     59      11.3589      0.00000
     60      11.4352      0.00000
     61      11.4376      0.00000
     62      11.4376      0.00000
     63      12.1043      0.00000
     64      12.7792      0.00000

 k-point    13 :      -0.5000    0.0000    0.0000
  band No.  band energies     occupation 
      1     -20.8096      2.00000
      2     -20.8096      2.00000
      3     -17.9882      2.00000
      4     -17.9882      2.00000
      5     -13.2775      2.00000
      6     -13.2775      2.00000
      7     -11.7011      2.00000
      8     -11.7011      2.00000
      9     -10.1722      2.00000
     10     -10.1722      2.00000
     11      -8.6429      2.00000
     12      -8.6429      2.00000
     13      -7.7884      2.00000
     14      -7.7884      2.00000
     15      -5.4855      2.00000
     16      -5.4855      2.00000
     17       0.0800      0.00000
     18       0.0800      0.00000
     19       2.5218      0.00000
     20       2.5218      0.00000
     21       3.3209      0.00000
     22       3.3209      0.00000
     23       3.6867      0.00000
     24       3.6867      0.00000
     25       4.4503      0.00000
     26       4.4503      0.00000
     27       4.6776      0.00000
     28       4.6776      0.00000
     29       5.0283      0.00000
     30       5.0283      0.00000
     31       5.3469      0.00000
     32       5.3469      0.00000
     33       6.4887      0.00000
     34       6.4887      0.00000
     35       6.7037      0.00000
     36       6.7037      0.00000
     37       7.1586      0.00000
     38       7.1586      0.00000
     39       7.3402      0.00000
     40       7.3402      0.00000
     41       7.7981      0.00000
     42       7.7981      0.00000
     43       8.4532      0.00000
     44       8.4532      0.00000
     45       9.0845      0.00000
     46       9.0845      0.00000
     47       9.5459      0.00000
     48       9.5459      0.00000
     49       9.6052      0.00000
     50       9.6052      0.00000
     51       9.8767      0.00000
     52       9.8767      0.00000
     53       9.9167      0.00000
     54       9.9167      0.00000
     55      10.4473      0.00000
     56      10.4473      0.00000
     57      10.7271      0.00000
     58      10.7271      0.00000
     59      11.3430      0.00000
     60      11.3430      0.00000
     61      11.4226      0.00000
     62      11.4226      0.00000
     63      12.4474      0.00000
     64      12.4536      0.00000

 k-point    14 :      -0.0238    0.0476    0.0000
  band No.  band energies     occupation 
      1     -22.2664      2.00000
      2     -17.1531      2.00000
      3     -17.1530      2.00000
      4     -17.0198      2.00000
      5     -15.9786      2.00000
      6     -15.8471      2.00000
      7     -15.8470      2.00000
      8     -10.3606      2.00000
      9      -9.2039      2.00000
     10      -9.1622      2.00000
     11      -9.1622      2.00000
     12      -5.8145      2.00000
     13      -5.7953      2.00000
     14      -5.1532      2.00000
     15      -5.1532      2.00000
     16      -5.0950      2.00000
     17      -1.0639      0.00000
     18      -1.0004      0.00000
     19      -1.0004      0.00000
     20       0.5311      0.00000
     21       1.3207      0.00000
     22       1.6440      0.00000
     23       2.5636      0.00000
     24       3.0337      0.00000
     25       4.6641      0.00000
     26       4.6641      0.00000
     27       4.6983      0.00000
     28       4.7063      0.00000
     29       5.3196      0.00000
     30       5.6224      0.00000
     31       5.6573      0.00000
     32       7.6530      0.00000
     33       7.9131      0.00000
     34       7.9131      0.00000
     35       8.3911      0.00000
     36       8.4488      0.00000
     37       8.5454      0.00000
     38       8.6893      0.00000
     39       8.7763      0.00000
     40       8.7763      0.00000
     41       9.0182      0.00000
     42       9.0182      0.00000
     43       9.2242      0.00000
     44       9.2830      0.00000
     45       9.2830      0.00000
     46       9.4357      0.00000
     47       9.7990      0.00000
     48       9.8479      0.00000
     49       9.8479      0.00000
     50       9.8646      0.00000
     51       9.8718      0.00000
     52      10.1102      0.00000
     53      10.1102      0.00000
     54      10.4534      0.00000
     55      10.4534      0.00000
     56      10.5447      0.00000
     57      10.5773      0.00000
     58      10.5773      0.00000
     59      10.7287      0.00000
     60      11.1306      0.00000
     61      11.1653      0.00000
     62      11.1857      0.00000
     63      11.1857      0.00000
     64      11.3934      0.00000

 k-point    15 :      -0.0476    0.0952    0.0000
  band No.  band energies     occupation 
      1     -22.2363      2.00000
      2     -17.4210      2.00000
      3     -17.4210      2.00000
      4     -16.9940      2.00000
      5     -15.9531      2.00000
      6     -15.5328      2.00000
      7     -15.5328      2.00000
      8     -10.3245      2.00000
      9      -9.3384      2.00000
     10      -9.1738      2.00000
     11      -9.1738      2.00000
     12      -5.9376      2.00000
     13      -5.8615      2.00000
     14      -5.2841      2.00000
     15      -5.2841      2.00000
     16      -5.0584      2.00000
     17      -1.0732      0.00000
     18      -0.8275      0.00000
     19      -0.8275      0.00000
     20       0.5720      0.00000
     21       1.3622      0.00000
     22       1.6860      0.00000
     23       2.6052      0.00000
     24       3.0752      0.00000
     25       4.7210      0.00000
     26       4.7210      0.00000
     27       4.7395      0.00000
     28       4.8880      0.00000
     29       5.3575      0.00000
     30       5.6454      0.00000
     31       5.7885      0.00000
     32       7.4005      0.00000
     33       7.4005      0.00000
     34       7.6935      0.00000
     35       8.2610      0.00000
     36       8.2610      0.00000
     37       8.4266      0.00000
     38       8.4906      0.00000
     39       8.5832      0.00000
     40       8.5844      0.00000
     41       8.7367      0.00000
     42       8.7367      0.00000
     43       9.2256      0.00000
     44       9.4772      0.00000
     45       9.5292      0.00000
     46       9.5292      0.00000
     47       9.5902      0.00000
     48       9.5902      0.00000
     49       9.8537      0.00000
     50       9.9061      0.00000
     51       9.9135      0.00000
     52      10.0455      0.00000
     53      10.0455      0.00000
     54      10.4517      0.00000
     55      10.4517      0.00000
     56      10.5624      0.00000
     57      10.7705      0.00000
     58      11.0810      0.00000
     59      11.0810      0.00000
     60      11.1687      0.00000
     61      11.2051      0.00000
     62      11.4326      0.00000
     63      11.4576      0.00000
     64      11.4576      0.00000

 k-point    16 :      -0.0714    0.1429    0.0000
  band No.  band energies     occupation 
      1     -22.1860      2.00000
      2     -17.7278      2.00000
      3     -17.7277      2.00000
      4     -16.9509      2.00000
      5     -15.9107      2.00000
      6     -15.1492      2.00000
      7     -15.1491      2.00000
      8     -10.2643      2.00000
      9      -9.5528      2.00000
     10      -9.1930      2.00000
     11      -9.1930      2.00000
     12      -6.1355      2.00000
     13      -5.9705      2.00000
     14      -5.4789      2.00000
     15      -5.4788      2.00000
     16      -4.9971      2.00000
     17      -1.0897      0.00000
     18      -0.5635      0.00000
     19      -0.5634      0.00000
     20       0.6403      0.00000
     21       1.4314      0.00000
     22       1.7559      0.00000
     23       2.6745      0.00000
     24       3.1443      0.00000
     25       4.8082      0.00000
     26       4.8158      0.00000
     27       4.8158      0.00000
     28       5.1816      0.00000
     29       5.4199      0.00000
     30       5.6840      0.00000
     31       5.9901      0.00000
     32       6.9102      0.00000
     33       6.9102      0.00000
     34       7.7610      0.00000
     35       7.7646      0.00000
     36       7.7646      0.00000
     37       8.2199      0.00000
     38       8.2199      0.00000
     39       8.4096      0.00000
     40       8.4854      0.00000
     41       8.5600      0.00000
     42       8.6460      0.00000
     43       9.0324      0.00000
     44       9.0324      0.00000
     45       9.2208      0.00000
     46       9.5337      0.00000
     47       9.5337      0.00000
     48       9.5466      0.00000
     49       9.9482      0.00000
     50       9.9753      0.00000
     51       9.9830      0.00000
     52      10.1792      0.00000
     53      10.1792      0.00000
     54      10.5904      0.00000
     55      10.8149      0.00000
     56      10.8149      0.00000
     57      10.8401      0.00000
     58      11.2321      0.00000
     59      11.2405      0.00000
     60      11.2405      0.00000
     61      11.2714      0.00000
     62      11.4979      0.00000
     63      11.7395      0.00000
     64      11.7436      0.00000

 k-point    17 :      -0.0952    0.1905    0.0000
  band No.  band energies     occupation 
      1     -22.1156      2.00000
      2     -18.0383      2.00000
      3     -18.0383      2.00000
      4     -16.8905      2.00000
      5     -15.8521      2.00000
      6     -14.7320      2.00000
      7     -14.7319      2.00000
      8     -10.1804      2.00000
      9      -9.8367      2.00000
     10      -9.2180      2.00000
     11      -9.2180      2.00000
     12      -6.3983      2.00000
     13      -6.1211      2.00000
     14      -5.7168      2.00000
     15      -5.7167      2.00000
     16      -4.9110      2.00000
     17      -1.1160      0.00000
     18      -0.2310      0.00000
     19      -0.2310      0.00000
     20       0.7359      0.00000
     21       1.5282      0.00000
     22       1.8539      0.00000
     23       2.7716      0.00000
     24       3.2412      0.00000
     25       4.9042      0.00000
     26       4.9462      0.00000
     27       4.9462      0.00000
     28       5.5054      0.00000
     29       5.5751      0.00000
     30       5.7425      0.00000
     31       6.2515      0.00000
     32       6.4451      0.00000
     33       6.4451      0.00000
     34       7.2913      0.00000
     35       7.2913      0.00000
     36       7.7309      0.00000
     37       7.7309      0.00000
     38       7.8553      0.00000
     39       8.1700      0.00000
     40       8.5562      0.00000
     41       8.5562      0.00000
     42       8.5673      0.00000
     43       8.6571      0.00000
     44       8.7336      0.00000
     45       9.0542      0.00000
     46       9.0542      0.00000
     47       9.1975      0.00000
     48       9.6436      0.00000
     49      10.0720      0.00000
     50      10.0802      0.00000
     51      10.0876      0.00000
     52      10.5078      0.00000
     53      10.5078      0.00000
     54      10.6278      0.00000
     55      10.7603      0.00000
     56      10.7603      0.00000
     57      10.9376      0.00000
     58      11.2761      0.00000
     59      11.2761      0.00000
     60      11.3203      0.00000
     61      11.3640      0.00000
     62      11.5887      0.00000
     63      11.6311      0.00000
     64      11.6311      0.00000

 k-point    18 :      -0.1191    0.2381    0.0000
  band No.  band energies     occupation 
      1     -22.0252      2.00000
      2     -18.3409      2.00000
      3     -18.3409      2.00000
      4     -16.8129      2.00000
      5     -15.7778      2.00000
      6     -14.2940      2.00000
      7     -14.2940      2.00000
      8     -10.1774      2.00000
      9     -10.0723      2.00000
     10      -9.2480      2.00000
     11      -9.2480      2.00000
     12      -6.7140      2.00000
     13      -6.3102      2.00000
     14      -5.9783      2.00000
     15      -5.9783      2.00000
     16      -4.8009      2.00000
     17      -1.1546      0.00000
     18       0.1489      0.00000
     19       0.1489      0.00000
     20       0.8588      0.00000
     21       1.6526      0.00000
     22       1.9798      0.00000
     23       2.8964      0.00000
     24       3.3657      0.00000
     25       5.0278      0.00000
     26       5.1086      0.00000
     27       5.1087      0.00000
     28       5.6114      0.00000
     29       5.8252      0.00000
     30       6.0084      0.00000
     31       6.0084      0.00000
     32       6.0543      0.00000
     33       6.5512      0.00000
     34       6.8427      0.00000
     35       6.8427      0.00000
     36       7.2697      0.00000
     37       7.2697      0.00000
     38       7.8754      0.00000
     39       7.9766      0.00000
     40       8.1047      0.00000
     41       8.1047      0.00000
     42       8.6006      0.00000
     43       8.6006      0.00000
     44       8.6714      0.00000
     45       8.7816      0.00000
     46       8.8456      0.00000
     47       9.1402      0.00000
     48       9.7684      0.00000
     49      10.0940      0.00000
     50      10.0940      0.00000
     51      10.1964      0.00000
     52      10.2052      0.00000
     53      10.2795      0.00000
     54      10.6769      0.00000
     55      10.8231      0.00000
     56      10.8231      0.00000
     57      11.0630      0.00000
     58      11.3271      0.00000
     59      11.3271      0.00000
     60      11.4325      0.00000
     61      11.4826      0.00000
     62      11.7053      0.00000
     63      12.0007      0.00000
     64      12.0191      0.00000

 k-point    19 :      -0.1429    0.2857    0.0000
  band No.  band energies     occupation 
      1     -21.9149      2.00000
      2     -18.6305      2.00000
      3     -18.6305      2.00000
      4     -16.7181      2.00000
      5     -15.6892      2.00000
      6     -13.8419      2.00000
      7     -13.8419      2.00000
      8     -10.5619      2.00000
      9      -9.9411      2.00000
     10      -9.2814      2.00000
     11      -9.2813      2.00000
     12      -7.0716      2.00000
     13      -6.5349      2.00000
     14      -6.2500      2.00000
     15      -6.2499      2.00000
     16      -4.6667      2.00000
     17      -1.2107      0.00000
     18       0.5595      0.00000
     19       0.5596      0.00000
     20       1.0090      0.00000
     21       1.8046      0.00000
     22       2.1337      0.00000
     23       3.0487      0.00000
     24       3.5180      0.00000
     25       5.1785      0.00000
     26       5.2820      0.00000
     27       5.2820      0.00000
     28       5.6197      0.00000
     29       5.6198      0.00000
     30       5.7342      0.00000
     31       5.9383      0.00000
     32       6.4198      0.00000
     33       6.4199      0.00000
[...]
     14      -5.9321      2.00000
     15      -5.9321      2.00000
     16      -4.8216      2.00000
     17      -1.1468      0.00000
     18       0.0807      0.00000
     19       0.0807      0.00000
     20       0.8356      0.00000
     21       1.6291      0.00000
     22       1.9561      0.00000
     23       2.8728      0.00000
     24       3.3423      0.00000
     25       5.0044      0.00000
     26       5.0785      0.00000
     27       5.0785      0.00000
     28       5.5918      0.00000
     29       5.8087      0.00000
     30       5.9663      0.00000
     31       6.0814      0.00000
     32       6.0814      0.00000
     33       6.4970      0.00000
     34       6.9183      0.00000
     35       6.9183      0.00000
     36       7.3473      0.00000
     37       7.3473      0.00000
     38       7.9305      0.00000
     39       7.9536      0.00000
     40       8.1808      0.00000
     41       8.1808      0.00000
     42       8.6520      0.00000
     43       8.6769      0.00000
     44       8.6769      0.00000
     45       8.7582      0.00000
     46       8.8245      0.00000
     47       9.1533      0.00000
     48       9.7449      0.00000
     49      10.1653      0.00000
     50      10.1653      0.00000
     51      10.1729      0.00000
     52      10.1817      0.00000
     53      10.2423      0.00000
     54      10.6674      0.00000
     55      10.8963      0.00000
     56      10.8963      0.00000
     57      11.0394      0.00000
     58      11.2360      0.00000
     59      11.2360      0.00000
     60      11.4114      0.00000
     61      11.4603      0.00000
     62      11.6832      0.00000
     63      11.9552      0.00000
     64      11.9560      0.00000

 k-point    52 :       0.0920    0.0920    0.0000
  band No.  band energies     occupation 
      1     -22.1265      2.00000
      2     -17.9957      2.00000
      3     -17.9957      2.00000
      4     -16.8998      2.00000
      5     -15.8612      2.00000
      6     -14.7910      2.00000
      7     -14.7910      2.00000
      8     -10.1934      2.00000
      9      -9.7938      2.00000
     10      -9.2142      2.00000
     11      -9.2142      2.00000
     12      -6.3586      2.00000
     13      -6.0980      2.00000
     14      -5.6821      2.00000
     15      -5.6821      2.00000
     16      -4.9243      2.00000
     17      -1.1117      0.00000
     18      -0.2799      0.00000
     19      -0.2799      0.00000
     20       0.7210      0.00000
     21       1.5131      0.00000
     22       1.8387      0.00000
     23       2.7565      0.00000
     24       3.2262      0.00000
     25       4.8893      0.00000
     26       4.9261      0.00000
     27       4.9261      0.00000
     28       5.4923      0.00000
     29       5.5153      0.00000
     30       5.7329      0.00000
     31       6.2126      0.00000
     32       6.5078      0.00000
     33       6.5078      0.00000
     34       7.3552      0.00000
     35       7.3552      0.00000
     36       7.7968      0.00000
     37       7.7968      0.00000
     38       7.8407      0.00000
     39       8.2066      0.00000
     40       8.5547      0.00000
     41       8.6205      0.00000
     42       8.6205      0.00000
     43       8.6420      0.00000
     44       8.7200      0.00000
     45       9.1189      0.00000
     46       9.1189      0.00000
     47       9.2024      0.00000
     48       9.6286      0.00000
     49      10.0570      0.00000
     50      10.0651      0.00000
     51      10.0654      0.00000
     52      10.5636      0.00000
     53      10.5636      0.00000
     54      10.6220      0.00000
     55      10.6811      0.00000
     56      10.6811      0.00000
     57      10.9225      0.00000
     58      11.3066      0.00000
     59      11.3388      0.00000
     60      11.3388      0.00000
     61      11.3496      0.00000
     62      11.5679      0.00000
     63      11.5679      0.00000
     64      11.5746      0.00000

 k-point    53 :       0.0690    0.0690    0.0000
  band No.  band energies     occupation 
      1     -22.1921      2.00000
      2     -17.6956      2.00000
      3     -17.6956      2.00000
      4     -16.9561      2.00000
      5     -15.9159      2.00000
      6     -15.1907      2.00000
      7     -15.1907      2.00000
      8     -10.2716      2.00000
      9      -9.5270      2.00000
     10      -9.1908      2.00000
     11      -9.1908      2.00000
     12      -6.1119      2.00000
     13      -5.9573      2.00000
     14      -5.4564      2.00000
     15      -5.4564      2.00000
     16      -5.0045      2.00000
     17      -1.0876      0.00000
     18      -0.5943      0.00000
     19      -0.5943      0.00000
     20       0.6320      0.00000
     21       1.4230      0.00000
     22       1.7474      0.00000
     23       2.6661      0.00000
     24       3.1359      0.00000
     25       4.7998      0.00000
     26       4.8043      0.00000
     27       4.8043      0.00000
     28       5.1464      0.00000
     29       5.4123      0.00000
     30       5.6790      0.00000
     31       5.9662      0.00000
     32       6.9597      0.00000
     33       6.9597      0.00000
     34       7.7528      0.00000
     35       7.8148      0.00000
     36       7.8148      0.00000
     37       8.2720      0.00000
     38       8.2720      0.00000
     39       8.4306      0.00000
     40       8.4783      0.00000
     41       8.5516      0.00000
     42       8.6383      0.00000
     43       9.0830      0.00000
     44       9.0830      0.00000
     45       9.2219      0.00000
     46       9.5381      0.00000
     47       9.5844      0.00000
     48       9.5844      0.00000
     49       9.9364      0.00000
     50       9.9668      0.00000
     51       9.9745      0.00000
     52      10.1190      0.00000
     53      10.1190      0.00000
     54      10.5871      0.00000
     55      10.8107      0.00000
     56      10.8107      0.00000
     57      10.8317      0.00000
     58      11.2244      0.00000
     59      11.2334      0.00000
     60      11.2334      0.00000
     61      11.2634      0.00000
     62      11.4899      0.00000
     63      11.6651      0.00000
     64      11.6654      0.00000

 k-point    54 :       0.0460    0.0460    0.0000
  band No.  band energies     occupation 
      1     -22.2390      2.00000
      2     -17.4007      2.00000
      3     -17.4007      2.00000
      4     -16.9963      2.00000
      5     -15.9554      2.00000
      6     -15.5573      2.00000
      7     -15.5573      2.00000
      8     -10.3277      2.00000
      9      -9.3265      2.00000
     10      -9.1728      2.00000
     11      -9.1728      2.00000
     12      -5.9265      2.00000
     13      -5.8556      2.00000
     14      -5.2728      2.00000
     15      -5.2728      2.00000
     16      -5.0617      2.00000
     17      -1.0724      0.00000
     18      -0.8426      0.00000
     19      -0.8426      0.00000
     20       0.5683      0.00000
     21       1.3585      0.00000
     22       1.6822      0.00000
     23       2.6014      0.00000
     24       3.0714      0.00000
     25       4.7158      0.00000
     26       4.7158      0.00000
     27       4.7358      0.00000
     28       4.8718      0.00000
     29       5.3541      0.00000
     30       5.6433      0.00000
     31       5.7771      0.00000
     32       7.4351      0.00000
     33       7.4351      0.00000
     34       7.6898      0.00000
     35       8.2959      0.00000
     36       8.2959      0.00000
     37       8.4234      0.00000
     38       8.4868      0.00000
     39       8.5798      0.00000
     40       8.5939      0.00000
     41       8.7733      0.00000
     42       8.7733      0.00000
     43       9.2256      0.00000
     44       9.4735      0.00000
     45       9.5507      0.00000
     46       9.5507      0.00000
     47       9.5637      0.00000
     48       9.5637      0.00000
     49       9.8487      0.00000
     50       9.9023      0.00000
     51       9.9097      0.00000
     52      10.0810      0.00000
     53      10.0810      0.00000
     54      10.4160      0.00000
     55      10.4160      0.00000
     56      10.5608      0.00000
     57      10.7667      0.00000
     58      11.0370      0.00000
     59      11.0370      0.00000
     60      11.1653      0.00000
     61      11.2015      0.00000
     62      11.4290      0.00000
     63      11.4732      0.00000
     64      11.4732      0.00000

 k-point    55 :       0.0230    0.0230    0.0000
  band No.  band energies     occupation 
      1     -22.2671      2.00000
      2     -17.1455      2.00000
      3     -17.1455      2.00000
      4     -17.0204      2.00000
      5     -15.9793      2.00000
      6     -15.8556      2.00000
      7     -15.8556      2.00000
      8     -10.3614      2.00000
      9      -9.2008      2.00000
     10      -9.1619      2.00000
     11      -9.1619      2.00000
     12      -5.8117      2.00000
     13      -5.7939      2.00000
     14      -5.1501      2.00000
     15      -5.1501      2.00000
     16      -5.0959      2.00000
     17      -1.0638      0.00000
     18      -1.0044      0.00000
     19      -1.0044      0.00000
     20       0.5301      0.00000
     21       1.3198      0.00000
     22       1.6430      0.00000
     23       2.5626      0.00000
     24       3.0328      0.00000
     25       4.6628      0.00000
     26       4.6628      0.00000
     27       4.6974      0.00000
     28       4.7022      0.00000
     29       5.3187      0.00000
     30       5.6214      0.00000
     31       5.6528      0.00000
     32       7.6521      0.00000
     33       7.9310      0.00000
     34       7.9310      0.00000
     35       8.3903      0.00000
     36       8.4479      0.00000
     37       8.5446      0.00000
     38       8.6918      0.00000
     39       8.7942      0.00000
     40       8.7942      0.00000
     41       8.9991      0.00000
     42       8.9991      0.00000
     43       9.2241      0.00000
     44       9.3021      0.00000
     45       9.3021      0.00000
     46       9.4347      0.00000
     47       9.7978      0.00000
     48       9.8349      0.00000
     49       9.8349      0.00000
     50       9.8636      0.00000
     51       9.8708      0.00000
     52      10.1227      0.00000
     53      10.1227      0.00000
     54      10.4325      0.00000
     55      10.4325      0.00000
     56      10.5443      0.00000
     57      10.5959      0.00000
     58      10.5959      0.00000
     59      10.7278      0.00000
     60      11.1297      0.00000
     61      11.1644      0.00000
     62      11.1673      0.00000
     63      11.1673      0.00000
     64      11.3925      0.00000


--------------------------------------------------------------------------------------------------------


 soft charge-density along one line, spin component           1
         0         1         2         3         4         5         6         7         8         9
 total charge-density along one line

 pseudopotential strength for first ion, spin component:           1
 10.217  13.588   0.000  -0.000  -0.000  -0.000   0.000   0.000
 13.588  18.068   0.000  -0.000  -0.000  -0.000   0.000   0.000
  0.000   0.000  -4.349  -0.000   0.000   8.507   0.000  -0.000
 -0.000  -0.000  -0.000  -4.342  -0.000   0.000   8.498   0.000
 -0.000  -0.000   0.000  -0.000  -4.349  -0.000   0.000   8.507
 -0.000  -0.000   8.507   0.000  -0.000 -18.777  -0.000   0.000
  0.000   0.000   0.000   8.498   0.000  -0.000 -18.768  -0.000
  0.000   0.000  -0.000   0.000   8.507   0.000  -0.000 -18.777
 total augmentation occupancy for first ion, spin component:           1
  2.000   0.000   0.000   0.000   0.000   0.000   0.000   0.000
  0.000   0.000   0.000   0.000   0.000   0.000   0.000   0.000
  0.000   0.000   0.667   0.000   0.000   0.000   0.000   0.000
  0.000   0.000   0.000   0.667   0.000   0.000   0.000   0.000
  0.000   0.000   0.000   0.000   0.667   0.000   0.000   0.000
  0.000   0.000   0.000   0.000   0.000   0.000   0.000   0.000
  0.000   0.000   0.000   0.000   0.000   0.000   0.000   0.000
  0.000   0.000   0.000   0.000   0.000   0.000   0.000   0.000


------------------------ aborting loop because EDIFF is reached ----------------------------------------





 total charge     

# of ion       s       p       d       tot
------------------------------------------
    1        0.864   1.798   0.000   2.662
    2        0.864   1.798   0.000   2.662
    3        0.864   1.798   0.000   2.662
    4        0.864   1.798   0.000   2.662
    5        0.864   1.798   0.000   2.662
    6        0.864   1.798   0.000   2.662
    7        0.864   1.798   0.000   2.662
    8        0.864   1.798   0.000   2.662
--------------------------------------------------
tot          6.911  14.385   0.000  21.296

    CHARGE:  cpu time    1.7749: real time    1.7817
    FORLOC:  cpu time    0.0339: real time    0.0339
    FORNL :  cpu time   21.4300: real time   21.5042
    STRESS:  cpu time   22.9160: real time   22.9714
    FORCOR:  cpu time    0.2945: real time    0.2953
    FORHAR:  cpu time    0.0826: real time    0.0827
    OFIELD:  cpu time    0.0009: real time    0.0009

  FORCE on cell =-STRESS in cart. coord.  units (eV):
  Direction    XX          YY          ZZ          XY          YZ          ZX
  --------------------------------------------------------------------------------------
  Alpha Z    12.49161    12.49161    12.49161
  Ewald    6261.69601  6261.69600 -7337.75100    -0.00000     0.00000     0.00000
  Hartree  6129.66120  6129.66120 -6084.13444    -0.00000    -0.00000    -0.00000
  E(xc)    -118.87460  -118.87458  -123.33359     0.00001     0.00000     0.00000
  Local  -12734.07171-12734.07183 13011.29180    -0.00010    -0.00000    -0.00000
  n-local   -29.16535   -29.30215   -26.77339     0.00603    -0.00000     0.00001
  augment    -3.13724    -3.13715    -2.88847     0.00008     0.00000    -0.00000
  Kinetic   481.26381   483.47346   550.70364     1.24600     0.00000    -0.00001
  Fock        0.00000     0.00000     0.00000     0.00000     0.00000     0.00000
  -------------------------------------------------------------------------------------
  Total       0.90016     0.90016    -0.39384    -0.00000    -0.00000    -0.00000
  in kB       3.42670     3.42670    -1.49927    -0.00000    -0.00000    -0.00000
  external pressure =        1.78 kB  Pullay stress =        0.00 kB


 VOLUME and BASIS-vectors are now :
 -----------------------------------------------------------------------------
  energy-cutoff  :      400.00
  volume of cell :      420.87
      direct lattice vectors                 reciprocal lattice vectors
     4.929416598  0.000000000  0.000000000     0.202863763  0.117123448 -0.000000000
    -2.464708299  4.269000000  0.000000000     0.000000000  0.234246896  0.000000000
     0.000000000  0.000000000 20.000000000     0.000000000 -0.000000000  0.050000000

  length of vectors
     4.929416598  4.929416598 20.000000000     0.234246896  0.234246896  0.050000000


 FORCES acting on ions
    electron-ion (+dipol)            ewald-force                    non-local-force                 convergence-correction
 -----------------------------------------------------------------------------------------------
   0.174E-05 -.735E-06 -.164E-12   0.220E-06 -.127E-06 -.126E-18   0.358E-17 -.564E-17 0.662E-23   0.194E-03 -.112E-03 0.121E-10
   0.174E-05 -.735E-06 -.126E-11   0.220E-06 -.127E-06 0.585E-19   0.217E-18 -.564E-17 0.331E-23   0.194E-03 -.112E-03 0.118E-10
   0.174E-05 -.735E-06 -.166E-12   0.220E-06 -.127E-06 -.187E-18   -.759E-18 0.217E-18 -.662E-23   0.194E-03 -.112E-03 0.121E-10
   0.174E-05 -.735E-06 -.127E-11   0.220E-06 -.127E-06 0.167E-18   -.271E-17 -.152E-17 0.662E-23   0.194E-03 -.112E-03 0.118E-10
   -.151E-05 0.114E-05 -.873E-12   -.220E-06 0.127E-06 -.443E-19   -.379E-18 0.130E-17 0.165E-23   -.194E-03 0.112E-03 0.123E-10
   -.151E-05 0.114E-05 0.112E-10   -.220E-06 0.127E-06 -.159E-18   -.130E-17 0.390E-17 -.116E-22   -.194E-03 0.112E-03 0.115E-10
   -.151E-05 0.114E-05 -.874E-12   -.220E-06 0.127E-06 0.839E-19   0.320E-17 0.824E-17 0.132E-22   -.194E-03 0.112E-03 0.123E-10
   -.151E-05 0.114E-05 0.111E-10   -.220E-06 0.127E-06 0.207E-18   -.114E-17 0.867E-17 -.132E-22   -.194E-03 0.112E-03 0.115E-10
 -----------------------------------------------------------------------------------------------
   0.938E-06 0.162E-05 0.177E-10   -.290E-13 0.269E-15 -.722E-34   0.705E-18 0.954E-17 0.000E+00   -.118E-06 -.205E-06 0.954E-10


 POSITION                                       TOTAL-FORCE (eV/Angst)
 -----------------------------------------------------------------------------------
      1.23235      0.71150     10.00000        -0.000000     -0.000000     -0.000000
      3.69706      0.71150     10.00000        -0.000000     -0.000000     -0.000000
     -0.00000      2.84600     10.00000         0.000000      0.000000      0.000000
      2.46471      2.84600     10.00000         0.000000     -0.000000      0.000000
      0.00000      1.42300     10.00000        -0.000000      0.000000     -0.000000
      2.46471      1.42300     10.00000        -0.000000      0.000000     -0.000000
     -1.23235      3.55750     10.00000         0.000000      0.000000      0.000000
      1.23235      3.55750     10.00000        -0.000000      0.000000      0.000000
 -----------------------------------------------------------------------------------
    total drift:                                0.000001      0.000001      0.000000


--------------------------------------------------------------------------------------------------------



  FREE ENERGIE OF THE ION-ELECTRON SYSTEM (eV)
  ---------------------------------------------------
  free  energy   TOTEN  =       -73.08728432 eV

  energy  without entropy=      -73.08707917  energy(sigma->0) =      -73.08718175



--------------------------------------------------------------------------------------------------------


    POTLOK:  cpu time    0.2708: real time    0.2727


--------------------------------------------------------------------------------------------------------


 writing wavefunctions
     LOOP+:  cpu time  490.6978: real time  493.0505
    4ORBIT:  cpu time    0.0000: real time    0.0000



 total charge     

# of ion       s       p       d       tot
------------------------------------------
    1        0.864   1.798   0.000   2.662
    2        0.864   1.798   0.000   2.662
    3        0.864   1.798   0.000   2.662
    4        0.864   1.798   0.000   2.662
    5        0.864   1.798   0.000   2.662
    6        0.864   1.798   0.000   2.662
    7        0.864   1.798   0.000   2.662
    8        0.864   1.798   0.000   2.662
--------------------------------------------------
tot          6.911  14.385   0.000  21.296


 total amount of memory used by VASP MPI-rank0   329766. kBytes
=======================================================================

   base      :      30000. kBytes
   nonl-proj :      28053. kBytes
   fftplans  :      19931. kBytes
   grid      :      33406. kBytes
   one-center:         24. kBytes
   wavefun   :     218352. kBytes

  
  
 General timing and accounting informations for this job:
 ========================================================
  
                  Total CPU time used (sec):      500.822
                            User time (sec):      490.773
                          System time (sec):       10.048
                         Elapsed time (sec):      503.716
  
                   Maximum memory used (kb):   382443520.
                   Average memory used (kb):           0.
  
                          Minor page faults:       175976
                          Major page faults:          962
                 Voluntary context switches:          211
