PROCAR lm decomposed
# of k-points:   55         # of bands:   64         # of ions:    8

 k-point     1 :    0.00000000 0.00000000 0.00000000     weight = 0.01818182

band     1 # energy  -22.27650131 # occ.  2.00000000

ion      s     py     pz     px    dxy    dyz    dz2    dxz  x2-y2    tot
    1  0.081  0.000  0.000  0.000  0.000  0.000  0.000  0.000  0.000  0.081
    2  0.081  0.000  0.000  0.000  0.000  0.000  0.000  0.000  0.000  0.081
    3  0.081  0.000  0.000  0.000  0.000  0.000  0.000  0.000  0.000  0.081
    4  0.081  0.000  0.000  0.000  0.000  0.000  0.000  0.000  0.000  0.081
    5  0.081  0.000  0.000  0.000  0.000  0.000  0.000  0.000  0.000  0.081
    6  0.081  0.000  0.000  0.000  0.000  0.000  0.000  0.000  0.000  0.081
    7  0.081  0.000  0.000  0.000  0.000  0.000  0.000  0.000  0.000  0.081
    8  0.081  0.000  0.000  0.000  0.000  0.000  0.000  0.000  0.000  0.081
tot    0.646  0.000  0.000  0.000  0.000  0.000  0.000  0.000  0.000  0.646

band     2 # energy  -17.02845177 # occ.  2.00000000

ion      s     py     pz     px    dxy    dyz    dz2    dxz  x2-y2    tot
    1  0.006  0.019  0.000  0.004  0.000  0.000  0.000  0.000  0.000  0.029
    2  0.144  0.005  0.000  0.004  0.000  0.000  0.000  0.000  0.000  0.153
    3  0.144  0.005  0.000  0.004  0.000  0.000  0.000  0.000  0.000  0.153
    4  0.006  0.019  0.000  0.004  0.000  0.000  0.000  0.000  0.000  0.029
    5  0.006  0.019  0.000  0.004  0.000  0.000  0.000  0.000  0.000  0.029
    6  0.144  0.005  0.000  0.004  0.000  0.000  0.000  0.000  0.000  0.153
    7  0.144  0.005  0.000  0.004  0.000  0.000  0.000  0.000  0.000  0.153
    8  0.006  0.019  0.000  0.004  0.000  0.000  0.000  0.000  0.000  0.029
tot    0.600  0.097  0.000  0.030  0.000  0.000  0.000  0.000  0.000  0.727

band     3 # energy  -17.02845177 # occ.  2.00000000

ion      s     py     pz     px    dxy    dyz    dz2    dxz  x2-y2    tot
    1  0.144  0.000  0.000  0.008  0.000  0.000  0.000  0.000  0.000  0.153
    2  0.006  0.015  0.000  0.008  0.000  0.000  0.000  0.000  0.000  0.029
    3  0.006  0.015  0.000  0.008  0.000  0.000  0.000  0.000  0.000  0.029
    4  0.144  0.000  0.000  0.008  0.000  0.000  0.000  0.000  0.000  0.153
    5  0.144  0.000  0.000  0.008  0.000  0.000  0.000  0.000  0.000  0.153
    6  0.006  0.015  0.000  0.008  0.000  0.000  0.000  0.000  0.000  0.029
    7  0.006  0.015  0.000  0.008  0.000  0.000  0.000  0.000  0.000  0.029
    8  0.144  0.000  0.000  0.008  0.000  0.000  0.000  0.000  0.000  0.153
tot    0.600  0.062  0.000  0.065  0.000  0.000  0.000  0.000  0.000  0.727

band     4 # energy  -17.02840389 # occ.  2.00000000

ion      s     py     pz     px    dxy    dyz    dz2    dxz  x2-y2    tot
    1  0.075  0.004  0.000  0.012  0.000  0.000  0.000  0.000  0.000  0.091
    2  0.075  0.004  0.000  0.012  0.000  0.000  0.000  0.000  0.000  0.091
    3  0.075  0.004  0.000  0.012  0.000  0.000  0.000  0.000  0.000  0.091
    4  0.075  0.004  0.000  0.012  0.000  0.000  0.000  0.000  0.000  0.091
    5  0.075  0.004  0.000  0.012  0.000  0.000  0.000  0.000  0.000  0.091
    6  0.075  0.004  0.000  0.012  0.000  0.000  0.000  0.000  0.000  0.091
    7  0.075  0.004  0.000  0.012  0.000  0.000  0.000  0.000  0.000  0.091
    8  0.075  0.004  0.000  0.012  0.000  0.000  0.000  0.000  0.000  0.091
tot    0.600  0.032  0.000  0.095  0.000  0.000  0.000  0.000  0.000  0.727

band     5 # energy  -15.98712388 # occ.  2.00000000

ion      s     py     pz     px    dxy    dyz    dz2    dxz  x2-y2    tot
    1  0.035  0.012  0.000  0.037  0.000  0.000  0.000  0.000  0.000  0.084
    2  0.035  0.012  0.000  0.037  0.000  0.000  0.000  0.000  0.000  0.084
    3  0.035  0.012  0.000  0.037  0.000  0.000  0.000  0.000  0.000  0.084
    4  0.035  0.012  0.000  0.037  0.000  0.000  0.000  0.000  0.000  0.084
    5  0.035  0.012  0.000  0.037  0.000  0.000  0.000  0.000  0.000  0.084
    6  0.035  0.012  0.000  0.037  0.000  0.000  0.000  0.000  0.000  0.084
    7  0.035  0.012  0.000  0.037  0.000  0.000  0.000  0.000  0.000  0.084
    8  0.035  0.012  0.000  0.037  0.000  0.000  0.000  0.000  0.000  0.084
tot    0.276  0.098  0.000  0.295  0.000  0.000  0.000  0.000  0.000  0.669

band     6 # energy  -15.98705558 # occ.  2.00000000

ion      s     py     pz     px    dxy    dyz    dz2    dxz  x2-y2    tot
    1  0.030  0.041  0.000  0.011  0.000  0.000  0.000  0.000  0.000  0.082
    2  0.039  0.035  0.000  0.011  0.000  0.000  0.000  0.000  0.000  0.085
    3  0.039  0.035  0.000  0.011  0.000  0.000  0.000  0.000  0.000  0.085
    4  0.030  0.041  0.000  0.011  0.000  0.000  0.000  0.000  0.000  0.082
    5  0.030  0.041  0.000  0.011  0.000  0.000  0.000  0.000  0.000  0.082
    6  0.039  0.035  0.000  0.011  0.000  0.000  0.000  0.000  0.000  0.085
    7  0.039  0.035  0.000  0.011  0.000  0.000  0.000  0.000  0.000  0.085
    8  0.030  0.041  0.000  0.011  0.000  0.000  0.000  0.000  0.000  0.082
tot    0.276  0.303  0.000  0.090  0.000  0.000  0.000  0.000  0.000  0.669

band     7 # energy  -15.98705558 # occ.  2.00000000

ion      s     py     pz     px    dxy    dyz    dz2    dxz  x2-y2    tot
    1  0.039  0.021  0.000  0.026  0.000  0.000  0.000  0.000  0.000  0.085
    2  0.030  0.027  0.000  0.026  0.000  0.000  0.000  0.000  0.000  0.082
    3  0.030  0.027  0.000  0.026  0.000  0.000  0.000  0.000  0.000  0.082
    4  0.039  0.021  0.000  0.026  0.000  0.000  0.000  0.000  0.000  0.085
    5  0.039  0.021  0.000  0.026  0.000  0.000  0.000  0.000  0.000  0.085
    6  0.030  0.027  0.000  0.026  0.000  0.000  0.000  0.000  0.000  0.082
    7  0.030  0.027  0.000  0.026  0.000  0.000  0.000  0.000  0.000  0.082
    8  0.039  0.021  0.000  0.026  0.000  0.000  0.000  0.000  0.000  0.085
tot    0.276  0.188  0.000  0.205  0.000  0.000  0.000  0.000  0.000  0.669

band     8 # energy  -10.37262147 # occ.  2.00000000

ion      s     py     pz     px    dxy    dyz    dz2    dxz  x2-y2    tot
    1  0.000  0.000  0.054  0.000  0.000  0.000  0.000  0.000  0.000  0.054
    2  0.000  0.000  0.054  0.000  0.000  0.000  0.000  0.000  0.000  0.054
    3  0.000  0.000  0.054  0.000  0.000  0.000  0.000  0.000  0.000  0.054
    4  0.000  0.000  0.054  0.000  0.000  0.000  0.000  0.000  0.000  0.054
    5  0.000  0.000  0.054  0.000  0.000  0.000  0.000  0.000  0.000  0.054
    6  0.000  0.000  0.054  0.000  0.000  0.000  0.000  0.000  0.000  0.054
    7  0.000  0.000  0.054  0.000  0.000  0.000  0.000  0.000  0.000  0.054
    8  0.000  0.000  0.054  0.000  0.000  0.000  0.000  0.000  0.000  0.054
tot    0.000  0.000  0.432  0.000  0.000  0.000  0.000  0.000  0.000  0.432

band     9 # energy   -9.15816796 # occ.  2.00000000

ion      s     py     pz     px    dxy    dyz    dz2    dxz  x2-y2    tot
    1  0.000  0.007  0.000  0.064  0.000  0.000  0.000  0.000  0.000  0.071
    2  0.000  0.007  0.000  0.119  0.000  0.000  0.000  0.000  0.000  0.125
    3  0.000  0.007  0.000  0.119  0.000  0.000  0.000  0.000  0.000  0.125
    4  0.000  0.007  0.000  0.064  0.000  0.000  0.000  0.000  0.000  0.071
    5  0.000  0.007  0.000  0.064  0.000  0.000  0.000  0.000  0.000  0.071
    6  0.000  0.007  0.000  0.119  0.000  0.000  0.000  0.000  0.000  0.125
    7  0.000  0.007  0.000  0.119  0.000  0.000  0.000  0.000  0.000  0.125
    8  0.000  0.007  0.000  0.064  0.000  0.000  0.000  0.000  0.000  0.071
tot    0.000  0.054  0.000  0.733  0.000  0.000  0.000  0.000  0.000  0.787

band    10 # energy   -9.15816796 # occ.  2.00000000

ion      s     py     pz     px    dxy    dyz    dz2    dxz  x2-y2    tot
    1  0.000  0.067  0.000  0.058  0.000  0.000  0.000  0.000  0.000  0.125
    2  0.000  0.067  0.000  0.004  0.000  0.000  0.000  0.000  0.000  0.071
    3  0.000  0.067  0.000  0.004  0.000  0.000  0.000  0.000  0.000  0.071
    4  0.000  0.067  0.000  0.058  0.000  0.000  0.000  0.000  0.000  0.125
    5  0.000  0.067  0.000  0.058  0.000  0.000  0.000  0.000  0.000  0.125
    6  0.000  0.067  0.000  0.004  0.000  0.000  0.000  0.000  0.000  0.071
    7  0.000  0.067  0.000  0.004  0.000  0.000  0.000  0.000  0.000  0.071
    8  0.000  0.067  0.000  0.058  0.000  0.000  0.000  0.000  0.000  0.125
tot    0.000  0.536  0.000  0.251  0.000  0.000  0.000  0.000  0.000  0.787

band    11 # energy   -9.15814717 # occ.  2.00000000

ion      s     py     pz     px    dxy    dyz    dz2    dxz  x2-y2    tot
    1  0.000  0.074  0.000  0.025  0.000  0.000  0.000  0.000  0.000  0.098
    2  0.000  0.074  0.000  0.025  0.000  0.000  0.000  0.000  0.000  0.098
    3  0.000  0.074  0.000  0.025  0.000  0.000  0.000  0.000  0.000  0.098
    4  0.000  0.074  0.000  0.025  0.000  0.000  0.000  0.000  0.000  0.098
    5  0.000  0.074  0.000  0.025  0.000  0.000  0.000  0.000  0.000  0.098
    6  0.000  0.074  0.000  0.025  0.000  0.000  0.000  0.000  0.000  0.098
    7  0.000  0.074  0.000  0.025  0.000  0.000  0.000  0.000  0.000  0.098
    8  0.000  0.074  0.000  0.025  0.000  0.000  0.000  0.000  0.000  0.098
tot    0.000  0.590  0.000  0.197  0.000  0.000  0.000  0.000  0.000  0.787

band    12 # energy   -5.77314825 # occ.  2.00000000

ion      s     py     pz     px    dxy    dyz    dz2    dxz  x2-y2    tot
    1  0.000  0.026  0.000  0.077  0.000  0.000  0.000  0.000  0.000  0.103
    2  0.000  0.026  0.000  0.077  0.000  0.000  0.000  0.000  0.000  0.103
    3  0.000  0.026  0.000  0.077  0.000  0.000  0.000  0.000  0.000  0.103
    4  0.000  0.026  0.000  0.077  0.000  0.000  0.000  0.000  0.000  0.103
    5  0.000  0.026  0.000  0.077  0.000  0.000  0.000  0.000  0.000  0.103
    6  0.000  0.026  0.000  0.077  0.000  0.000  0.000  0.000  0.000  0.103
    7  0.000  0.026  0.000  0.077  0.000  0.000  0.000  0.000  0.000  0.103
    8  0.000  0.026  0.000  0.077  0.000  0.000  0.000  0.000  0.000  0.103
tot    0.000  0.207  0.000  0.620  0.000  0.000  0.000  0.000  0.000  0.827

band    13 # energy   -5.77309908 # occ.  2.00000000

ion      s     py     pz     px    dxy    dyz    dz2    dxz  x2-y2    tot
    1  0.000  0.077  0.000  0.026  0.000  0.000  0.000  0.000  0.000  0.103
    2  0.000  0.077  0.000  0.026  0.000  0.000  0.000  0.000  0.000  0.103
    3  0.000  0.077  0.000  0.026  0.000  0.000  0.000  0.000  0.000  0.103
    4  0.000  0.077  0.000  0.026  0.000  0.000  0.000  0.000  0.000  0.103
    5  0.000  0.077  0.000  0.026  0.000  0.000  0.000  0.000  0.000  0.103
    6  0.000  0.077  0.000  0.026  0.000  0.000  0.000  0.000  0.000  0.103
    7  0.000  0.077  0.000  0.026  0.000  0.000  0.000  0.000  0.000  0.103
    8  0.000  0.077  0.000  0.026  0.000  0.000  0.000  0.000  0.000  0.103
tot    0.000  0.620  0.000  0.207  0.000  0.000  0.000  0.000  0.000  0.827

band    14 # energy   -5.10675948 # occ.  2.00000000

ion      s     py     pz     px    dxy    dyz    dz2    dxz  x2-y2    tot
    1  0.000  0.000  0.123  0.000  0.000  0.000  0.000  0.000  0.000  0.123
    2  0.000  0.000  0.005  0.000  0.000  0.000  0.000  0.000  0.000  0.005
    3  0.000  0.000  0.005  0.000  0.000  0.000  0.000  0.000  0.000  0.005
    4  0.000  0.000  0.123  0.000  0.000  0.000  0.000  0.000  0.000  0.123
    5  0.000  0.000  0.123  0.000  0.000  0.000  0.000  0.000  0.000  0.123
    6  0.000  0.000  0.005  0.000  0.000  0.000  0.000  0.000  0.000  0.005
    7  0.000  0.000  0.005  0.000  0.000  0.000  0.000  0.000  0.000  0.005
    8  0.000  0.000  0.123  0.000  0.000  0.000  0.000  0.000  0.000  0.123
tot    0.000  0.000  0.512  0.000  0.000  0.000  0.000  0.000  0.000  0.512

band    15 # energy   -5.10675948 # occ.  2.00000000

ion      s     py     pz     px    dxy    dyz    dz2    dxz  x2-y2    tot
    1  0.000  0.000  0.005  0.000  0.000  0.000  0.000  0.000  0.000  0.005
    2  0.000  0.000  0.123  0.000  0.000  0.000  0.000  0.000  0.000  0.123
    3  0.000  0.000  0.123  0.000  0.000  0.000  0.000  0.000  0.000  0.123
    4  0.000  0.000  0.005  0.000  0.000  0.000  0.000  0.000  0.000  0.005
    5  0.000  0.000  0.005  0.000  0.000  0.000  0.000  0.000  0.000  0.005
    6  0.000  0.000  0.123  0.000  0.000  0.000  0.000  0.000  0.000  0.123
    7  0.000  0.000  0.123  0.000  0.000  0.000  0.000  0.000  0.000  0.123
    8  0.000  0.000  0.005  0.000  0.000  0.000  0.000  0.000  0.000  0.005
tot    0.000  0.000  0.512  0.000  0.000  0.000  0.000  0.000  0.000  0.512

band    16 # energy   -5.10674262 # occ.  2.00000000

ion      s     py     pz     px    dxy    dyz    dz2    dxz  x2-y2    tot
    1  0.000  0.000  0.064  0.000  0.000  0.000  0.000  0.000  0.000  0.064
    2  0.000  0.000  0.064  0.000  0.000  0.000  0.000  0.000  0.000  0.064
    3  0.000  0.000  0.064  0.000  0.000  0.000  0.000  0.000  0.000  0.064
    4  0.000  0.000  0.064  0.000  0.000  0.000  0.000  0.000  0.000  0.064
    5  0.000  0.000  0.064  0.000  0.000  0.000  0.000  0.000  0.000  0.064
    6  0.000  0.000  0.064  0.000  0.000  0.000  0.000  0.000  0.000  0.064
    7  0.000  0.000  0.064  0.000  0.000  0.000  0.000  0.000  0.000  0.064
    8  0.000  0.000  0.064  0.000  0.000  0.000  0.000  0.000  0.000  0.064
tot    0.000  0.000  0.512  0.000  0.000  0.000  0.000  0.000  0.000  0.512

band    17 # energy   -1.06080984 # occ.  0.00000000

ion      s     py     pz     px    dxy    dyz    dz2    dxz  x2-y2    tot
    1  0.000  0.000  0.056  0.000  0.000  0.000  0.000  0.000  0.000  0.056
    2  0.000  0.000  0.056  0.000  0.000  0.000  0.000  0.000  0.000  0.056
    3  0.000  0.000  0.056  0.000  0.000  0.000  0.000  0.000  0.000  0.056
    4  0.000  0.000  0.056  0.000  0.000  0.000  0.000  0.000  0.000  0.056
    5  0.000  0.000  0.056  0.000  0.000  0.000  0.000  0.000  0.000  0.056
    6  0.000  0.000  0.056  0.000  0.000  0.000  0.000  0.000  0.000  0.056
    7  0.000  0.000  0.056  0.000  0.000  0.000  0.000  0.000  0.000  0.056
    8  0.000  0.000  0.056  0.000  0.000  0.000  0.000  0.000  0.000  0.056
tot    0.000  0.000  0.449  0.000  0.000  0.000  0.000  0.000  0.000  0.449

band    18 # energy   -1.06078290 # occ.  0.00000000

ion      s     py     pz     px    dxy    dyz    dz2    dxz  x2-y2    tot
    1  0.000  0.000  0.018  0.000  0.000  0.000  0.000  0.000  0.000  0.018
    2  0.000  0.000  0.094  0.000  0.000  0.000  0.000  0.000  0.000  0.094
    3  0.000  0.000  0.094  0.000  0.000  0.000  0.000  0.000  0.000  0.094
    4  0.000  0.000  0.018  0.000  0.000  0.000  0.000  0.000  0.000  0.018
    5  0.000  0.000  0.018  0.000  0.000  0.000  0.000  0.000  0.000  0.018
    6  0.000  0.000  0.094  0.000  0.000  0.000  0.000  0.000  0.000  0.094
    7  0.000  0.000  0.094  0.000  0.000  0.000  0.000  0.000  0.000  0.094
    8  0.000  0.000  0.018  0.000  0.000  0.000  0.000  0.000  0.000  0.018
tot    0.000  0.000  0.449  0.000  0.000  0.000  0.000  0.000  0.000  0.449

band    19 # energy   -1.06078290 # occ.  0.00000000

ion      s     py     pz     px    dxy    dyz    dz2    dxz  x2-y2    tot
    1  0.000  0.000  0.094  0.000  0.000  0.000  0.000  0.000  0.000  0.094
    2  0.000  0.000  0.018  0.000  0.000  0.000  0.000  0.000  0.000  0.018
    3  0.000  0.000  0.018  0.000  0.000  0.000  0.000  0.000  0.000  0.018
    4  0.000  0.000  0.094  0.000  0.000  0.000  0.000  0.000  0.000  0.094
    5  0.000  0.000  0.094  0.000  0.000  0.000  0.000  0.000  0.000  0.094
    6  0.000  0.000  0.018  0.000  0.000  0.000  0.000  0.000  0.000  0.018
    7  0.000  0.000  0.018  0.000  0.000  0.000  0.000  0.000  0.000  0.018
    8  0.000  0.000  0.094  0.000  0.000  0.000  0.000  0.000  0.000  0.094
tot    0.000  0.000  0.449  0.000  0.000  0.000  0.000  0.000  0.000  0.449

band    20 # energy    0.51740502 # occ.  0.00000000

ion      s     py     pz     px    dxy    dyz    dz2    dxz  x2-y2    tot
    1  0.002  0.000  0.000  0.000  0.000  0.000  0.000  0.000  0.000  0.002
    2  0.002  0.000  0.000  0.000  0.000  0.000  0.000  0.000  0.000  0.002
    3  0.002  0.000  0.000  0.000  0.000  0.000  0.000  0.000  0.000  0.002
    4  0.002  0.000  0.000  0.000  0.000  0.000  0.000  0.000  0.000  0.002
    5  0.002  0.000  0.000  0.000  0.000  0.000  0.000  0.000  0.000  0.002
    6  0.002  0.000  0.000  0.000  0.000  0.000  0.000  0.000  0.000  0.002
    7  0.002  0.000  0.000  0.000  0.000  0.000  0.000  0.000  0.000  0.002
    8  0.002  0.000  0.000  0.000  0.000  0.000  0.000  0.000  0.000  0.002
tot    0.020  0.000  0.000  0.000  0.000  0.000  0.000  0.000  0.000  0.020

band    21 # energy    1.30684922 # occ.  0.00000000

ion      s     py     pz     px    dxy    dyz    dz2    dxz  x2-y2    tot
    1  0.000  0.000  0.003  0.000  0.000  0.000  0.000  0.000  0.000  0.003
    2  0.000  0.000  0.003  0.000  0.000  0.000  0.000  0.000  0.000  0.003
    3  0.000  0.000  0.003  0.000  0.000  0.000  0.000  0.000  0.000  0.003
    4  0.000  0.000  0.003  0.000  0.000  0.000  0.000  0.000  0.000  0.003
    5  0.000  0.000  0.003  0.000  0.000  0.000  0.000  0.000  0.000  0.003
    6  0.000  0.000  0.003  0.000  0.000  0.000  0.000  0.000  0.000  0.003
    7  0.000  0.000  0.003  0.000  0.000  0.000  0.000  0.000  0.000  0.003
    8  0.000  0.000  0.003  0.000  0.000  0.000  0.000  0.000  0.000  0.003
tot    0.000  0.000  0.022  0.000  0.000  0.000  0.000  0.000  0.000  0.022

band    22 # energy    1.62998567 # occ.  0.00000000

ion      s     py     pz     px    dxy    dyz    dz2    dxz  x2-y2    tot
    1  0.000  0.000  0.000  0.000  0.000  0.000  0.000  0.000  0.000  0.000
    2  0.000  0.000  0.000  0.000  0.000  0.000  0.000  0.000  0.000  0.000
    3  0.000  0.000  0.000  0.000  0.000  0.000  0.000  0.000  0.000  0.000
    4  0.000  0.000  0.000  0.000  0.000  0.000  0.000  0.000  0.000  0.000
    5  0.000  0.000  0.000  0.000  0.000  0.000  0.000  0.000  0.000  0.000
    6  0.000  0.000  0.000  0.000  0.000  0.000  0.000  0.000  0.000  0.000
    7  0.000  0.000  0.000  0.000  0.000  0.000  0.000  0.000  0.000  0.000
    8  0.000  0.000  0.000  0.000  0.000  0.000  0.000  0.000  0.000  0.000
tot    0.002  0.000  0.000  0.000  0.000  0.000  0.000  0.000  0.000  0.002

band    23 # energy    2.54970521 # occ.  0.00000000

ion      s     py     pz     px    dxy    dyz    dz2    dxz  x2-y2    tot
    1  0.000  0.000  0.002  0.000  0.000  0.000  0.000  0.000  0.000  0.002
    2  0.000  0.000  0.002  0.000  0.000  0.000  0.000  0.000  0.000  0.002
    3  0.000  0.000  0.002  0.000  0.000  0.000  0.000  0.000  0.000  0.002
    4  0.000  0.000  0.002  0.000  0.000  0.000  0.000  0.000  0.000  0.002
    5  0.000  0.000  0.002  0.000  0.000  0.000  0.000  0.000  0.000  0.002
    6  0.000  0.000  0.002  0.000  0.000  0.000  0.000  0.000  0.000  0.002
    7  0.000  0.000  0.002  0.000  0.000  0.000  0.000  0.000  0.000  0.002
    8  0.000  0.000  0.002  0.000  0.000  0.000  0.000  0.000  0.000  0.002
tot    0.000  0.000  0.017  0.000  0.000  0.000  0.000  0.000  0.000  0.017

band    24 # energy    3.01986105 # occ.  0.00000000

ion      s     py     pz     px    dxy    dyz    dz2    dxz  x2-y2    tot
    1  0.001  0.000  0.000  0.000  0.000  0.000  0.000  0.000  0.000  0.001
    2  0.001  0.000  0.000  0.000  0.000  0.000  0.000  0.000  0.000  0.001
    3  0.001  0.000  0.000  0.000  0.000  0.000  0.000  0.000  0.000  0.001
    4  0.001  0.000  0.000  0.000  0.000  0.000  0.000  0.000  0.000  0.001
    5  0.001  0.000  0.000  0.000  0.000  0.000  0.000  0.000  0.000  0.001
    6  0.001  0.000  0.000  0.000  0.000  0.000  0.000  0.000  0.000  0.001
    7  0.001  0.000  0.000  0.000  0.000  0.000  0.000  0.000  0.000  0.001
    8  0.001  0.000  0.000  0.000  0.000  0.000  0.000  0.000  0.000  0.001
tot    0.007  0.000  0.000  0.000  0.000  0.000  0.000  0.000  0.000  0.007

band    25 # energy    4.64492096 # occ.  0.00000000

ion      s     py     pz     px    dxy    dyz    dz2    dxz  x2-y2    tot
    1  0.022  0.009  0.000  0.004  0.000  0.000  0.000  0.000  0.000  0.035
    2  0.070  0.004  0.000  0.004  0.000  0.000  0.000  0.000  0.000  0.078
    3  0.070  0.004  0.000  0.004  0.000  0.000  0.000  0.000  0.000  0.078
    4  0.022  0.009  0.000  0.004  0.000  0.000  0.000  0.000  0.000  0.035
    5  0.022  0.009  0.000  0.004  0.000  0.000  0.000  0.000  0.000  0.035
    6  0.070  0.004  0.000  0.004  0.000  0.000  0.000  0.000  0.000  0.078
    7  0.070  0.004  0.000  0.004  0.000  0.000  0.000  0.000  0.000  0.078
    8  0.022  0.009  0.000  0.004  0.000  0.000  0.000  0.000  0.000  0.035
tot    0.370  0.051  0.000  0.030  0.000  0.000  0.000  0.000  0.000  0.451

band    26 # energy    4.64492096 # occ.  0.00000000

ion      s     py     pz     px    dxy    dyz    dz2    dxz  x2-y2    tot
    1  0.070  0.004  0.000  0.004  0.000  0.000  0.000  0.000  0.000  0.078
    2  0.022  0.009  0.000  0.004  0.000  0.000  0.000  0.000  0.000  0.035
    3  0.022  0.009  0.000  0.004  0.000  0.000  0.000  0.000  0.000  0.035
    4  0.070  0.004  0.000  0.004  0.000  0.000  0.000  0.000  0.000  0.078
    5  0.070  0.004  0.000  0.004  0.000  0.000  0.000  0.000  0.000  0.078
    6  0.022  0.009  0.000  0.004  0.000  0.000  0.000  0.000  0.000  0.035
    7  0.022  0.009  0.000  0.004  0.000  0.000  0.000  0.000  0.000  0.035
    8  0.070  0.004  0.000  0.004  0.000  0.000  0.000  0.000  0.000  0.078
tot    0.370  0.051  0.000  0.030  0.000  0.000  0.000  0.000  0.000  0.451

band    27 # energy    4.64495210 # occ.  0.00000000

ion      s     py     pz     px    dxy    dyz    dz2    dxz  x2-y2    tot
    1  0.046  0.003  0.000  0.008  0.000  0.000  0.000  0.000  0.000  0.056
    2  0.046  0.003  0.000  0.008  0.000  0.000  0.000  0.000  0.000  0.056
    3  0.046  0.003  0.000  0.008  0.000  0.000  0.000  0.000  0.000  0.056
    4  0.046  0.003  0.000  0.008  0.000  0.000  0.000  0.000  0.000  0.056
    5  0.046  0.003  0.000  0.008  0.000  0.000  0.000  0.000  0.000  0.056
    6  0.046  0.003  0.000  0.008  0.000  0.000  0.000  0.000  0.000  0.056
    7  0.046  0.003  0.000  0.008  0.000  0.000  0.000  0.000  0.000  0.056
    8  0.046  0.003  0.000  0.008  0.000  0.000  0.000  0.000  0.000  0.056
tot    0.370  0.020  0.000  0.061  0.000  0.000  0.000  0.000  0.000  0.451

band    28 # energy    4.68455980 # occ.  0.00000000

ion      s     py     pz     px    dxy    dyz    dz2    dxz  x2-y2    tot
    1  0.000  0.000  0.003  0.000  0.000  0.000  0.000  0.000  0.000  0.003
    2  0.000  0.000  0.003  0.000  0.000  0.000  0.000  0.000  0.000  0.003
    3  0.000  0.000  0.003  0.000  0.000  0.000  0.000  0.000  0.000  0.003
    4  0.000  0.000  0.003  0.000  0.000  0.000  0.000  0.000  0.000  0.003
    5  0.000  0.000  0.003  0.000  0.000  0.000  0.000  0.000  0.000  0.003
    6  0.000  0.000  0.003  0.000  0.000  0.000  0.000  0.000  0.000  0.003
    7  0.000  0.000  0.003  0.000  0.000  0.000  0.000  0.000  0.000  0.003
    8  0.000  0.000  0.003  0.000  0.000  0.000  0.000  0.000  0.000  0.003
tot    0.000  0.000  0.026  0.000  0.000  0.000  0.000  0.000  0.000  0.026

band    29 # energy    5.30692957 # occ.  0.00000000

ion      s     py     pz     px    dxy    dyz    dz2    dxz  x2-y2    tot
    1  0.001  0.000  0.000  0.000  0.000  0.000  0.000  0.000  0.000  0.001
    2  0.001  0.000  0.000  0.000  0.000  0.000  0.000  0.000  0.000  0.001
    3  0.001  0.000  0.000  0.000  0.000  0.000  0.000  0.000  0.000  0.001
    4  0.001  0.000  0.000  0.000  0.000  0.000  0.000  0.000  0.000  0.001
    5  0.001  0.000  0.000  0.000  0.000  0.000  0.000  0.000  0.000  0.001
    6  0.001  0.000  0.000  0.000  0.000  0.000  0.000  0.000  0.000  0.001
    7  0.001  0.000  0.000  0.000  0.000  0.000  0.000  0.000  0.000  0.001
    8  0.001  0.000  0.000  0.000  0.000  0.000  0.000  0.000  0.000  0.001
tot    0.011  0.000  0.000  0.000  0.000  0.000  0.000  0.000  0.000  0.011

band    30 # energy    5.61149410 # occ.  0.00000000

ion      s     py     pz     px    dxy    dyz    dz2    dxz  x2-y2    tot
    1  0.000  0.049  0.000  0.016  0.000  0.000  0.000  0.000  0.000  0.066
    2  0.000  0.049  0.000  0.016  0.000  0.000  0.000  0.000  0.000  0.066
    3  0.000  0.049  0.000  0.016  0.000  0.000  0.000  0.000  0.000  0.066
    4  0.000  0.049  0.000  0.016  0.000  0.000  0.000  0.000  0.000  0.066
    5  0.000  0.049  0.000  0.016  0.000  0.000  0.000  0.000  0.000  0.066
    6  0.000  0.049  0.000  0.016  0.000  0.000  0.000  0.000  0.000  0.066
    7  0.000  0.049  0.000  0.016  0.000  0.000  0.000  0.000  0.000  0.066
    8  0.000  0.049  0.000  0.016  0.000  0.000  0.000  0.000  0.000  0.066
tot    0.000  0.395  0.000  0.132  0.000  0.000  0.000  0.000  0.000  0.527

band    31 # energy    5.61153019 # occ.  0.00000000

ion      s     py     pz     px    dxy    dyz    dz2    dxz  x2-y2    tot
    1  0.000  0.016  0.000  0.049  0.000  0.000  0.000  0.000  0.000  0.066
    2  0.000  0.016  0.000  0.049  0.000  0.000  0.000  0.000  0.000  0.066
    3  0.000  0.016  0.000  0.049  0.000  0.000  0.000  0.000  0.000  0.066
    4  0.000  0.016  0.000  0.049  0.000  0.000  0.000  0.000  0.000  0.066
    5  0.000  0.016  0.000  0.049  0.000  0.000  0.000  0.000  0.000  0.066
    6  0.000  0.016  0.000  0.049  0.000  0.000  0.000  0.000  0.000  0.066
    7  0.000  0.016  0.000  0.049  0.000  0.000  0.000  0.000  0.000  0.066
    8  0.000  0.016  0.000  0.049  0.000  0.000  0.000  0.000  0.000  0.066
tot    0.000  0.132  0.000  0.395  0.000  0.000  0.000  0.000  0.000  0.527

band    32 # energy    7.63945856 # occ.  0.00000000

ion      s     py     pz     px    dxy    dyz    dz2    dxz  x2-y2    tot
    1  0.000  0.000  0.004  0.000  0.000  0.000  0.000  0.000  0.000  0.004
    2  0.000  0.000  0.004  0.000  0.000  0.000  0.000  0.000  0.000  0.004
    3  0.000  0.000  0.004  0.000  0.000  0.000  0.000  0.000  0.000  0.004
    4  0.000  0.000  0.004  0.000  0.000  0.000  0.000  0.000  0.000  0.004
    5  0.000  0.000  0.004  0.000  0.000  0.000  0.000  0.000  0.000  0.004
    6  0.000  0.000  0.004  0.000  0.000  0.000  0.000  0.000  0.000  0.004
    7  0.000  0.000  0.004  0.000  0.000  0.000  0.000  0.000  0.000  0.004
    8  0.000  0.000  0.004  0.000  0.000  0.000  0.000  0.000  0.000  0.004
tot    0.000  0.000  0.035  0.000  0.000  0.000  0.000  0.000  0.000  0.035

band    33 # energy    8.37929914 # occ.  0.00000000

ion      s     py     pz     px    dxy    dyz    dz2    dxz  x2-y2    tot
    1  0.002  0.000  0.000  0.002  0.000  0.000  0.000  0.000  0.000  0.004
    2  0.000  0.003  0.000  0.002  0.000  0.000  0.000  0.000  0.000  0.005
    3  0.000  0.003  0.000  0.002  0.000  0.000  0.000  0.000  0.000  0.005
    4  0.002  0.000  0.000  0.002  0.000  0.000  0.000  0.000  0.000  0.004
    5  0.002  0.000  0.000  0.002  0.000  0.000  0.000  0.000  0.000  0.004
    6  0.000  0.003  0.000  0.002  0.000  0.000  0.000  0.000  0.000  0.005
    7  0.000  0.003  0.000  0.002  0.000  0.000  0.000  0.000  0.000  0.005
    8  0.002  0.000  0.000  0.002  0.000  0.000  0.000  0.000  0.000  0.004
tot    0.009  0.013  0.000  0.016  0.000  0.000  0.000  0.000  0.000  0.038

band    34 # energy    8.37929914 # occ.  0.00000000

ion      s     py     pz     px    dxy    dyz    dz2    dxz  x2-y2    tot
    1  0.000  0.004  0.000  0.001  0.000  0.000  0.000  0.000  0.000  0.005
    2  0.002  0.002  0.000  0.001  0.000  0.000  0.000  0.000  0.000  0.004
    3  0.002  0.002  0.000  0.001  0.000  0.000  0.000  0.000  0.000  0.004
    4  0.000  0.004  0.000  0.001  0.000  0.000  0.000  0.000  0.000  0.005
    5  0.000  0.004  0.000  0.001  0.000  0.000  0.000  0.000  0.000  0.005
    6  0.002  0.002  0.000  0.001  0.000  0.000  0.000  0.000  0.000  0.004
    7  0.002  0.002  0.000  0.001  0.000  0.000  0.000  0.000  0.000  0.004
    8  0.000  0.004  0.000  0.001  0.000  0.000  0.000  0.000  0.000  0.005
tot    0.009  0.023  0.000  0.006  0.000  0.000  0.000  0.000  0.000  0.038

band    35 # energy    8.37931074 # occ.  0.00000000

ion      s     py     pz     px    dxy    dyz    dz2    dxz  x2-y2    tot
    1  0.001  0.001  0.000  0.003  0.000  0.000  0.000  0.000  0.000  0.005
    2  0.001  0.001  0.000  0.003  0.000  0.000  0.000  0.000  0.000  0.005
    3  0.001  0.001  0.000  0.003  0.000  0.000  0.000  0.000  0.000  0.005
    4  0.001  0.001  0.000  0.003  0.000  0.000  0.000  0.000  0.000  0.005
    5  0.001  0.001  0.000  0.003  0.000  0.000  0.000  0.000  0.000  0.005
    6  0.001  0.001  0.000  0.003  0.000  0.000  0.000  0.000  0.000  0.005
    7  0.001  0.001  0.000  0.003  0.000  0.000  0.000  0.000  0.000  0.005
    8  0.001  0.001  0.000  0.003  0.000  0.000  0.000  0.000  0.000  0.005
tot    0.009  0.007  0.000  0.021  0.000  0.000  0.000  0.000  0.000  0.038

band    36 # energy    8.43489658 # occ.  0.00000000

ion      s     py     pz     px    dxy    dyz    dz2    dxz  x2-y2    tot
    1  0.002  0.000  0.000  0.000  0.000  0.000  0.000  0.000  0.000  0.002
    2  0.002  0.000  0.000  0.000  0.000  0.000  0.000  0.000  0.000  0.002
    3  0.002  0.000  0.000  0.000  0.000  0.000  0.000  0.000  0.000  0.002
    4  0.002  0.000  0.000  0.000  0.000  0.000  0.000  0.000  0.000  0.002
    5  0.002  0.000  0.000  0.000  0.000  0.000  0.000  0.000  0.000  0.002
    6  0.002  0.000  0.000  0.000  0.000  0.000  0.000  0.000  0.000  0.002
    7  0.002  0.000  0.000  0.000  0.000  0.000  0.000  0.000  0.000  0.002
    8  0.002  0.000  0.000  0.000  0.000  0.000  0.000  0.000  0.000  0.002
tot    0.012  0.000  0.000  0.000  0.000  0.000  0.000  0.000  0.000  0.012

band    37 # energy    8.53294079 # occ.  0.00000000

ion      s     py     pz     px    dxy    dyz    dz2    dxz  x2-y2    tot
    1  0.000  0.001  0.000  0.003  0.000  0.000  0.000  0.000  0.000  0.004
    2  0.000  0.001  0.000  0.003  0.000  0.000  0.000  0.000  0.000  0.004
    3  0.000  0.001  0.000  0.003  0.000  0.000  0.000  0.000  0.000  0.004
    4  0.000  0.001  0.000  0.003  0.000  0.000  0.000  0.000  0.000  0.004
    5  0.000  0.001  0.000  0.003  0.000  0.000  0.000  0.000  0.000  0.004