C                                       
           1
     4.929417    0.000000    0.000000
    -2.464708    4.269000    0.000000
     0.000000    0.000000   20.000000
   C 
   8
Direct configuration=     1
   0.33333333  0.16666667  0.50000000
   0.83333333  0.16666667  0.50000000
   0.33333333  0.66666667  0.50000000
   0.83333333  0.66666667  0.50000000
   0.16666667  0.33333333  0.50000000
   0.66666667  0.33333333  0.50000000
   0.16666667  0.83333333  0.50000000
   0.66666667  0.83333333  0.50000000
