written on  1Apr2018 at 07:07:16
          8
        729
   1    1    1    1    1    1    1    1    1    1    1    1    1    1    1
   1    1    1    1    1    1    1    1    1    1    1    1    1    1    1
   1    1    1    1    1    1    1    1    1    1    1    1    1    1    1
   1    1    1    1    1    1    1    1    1    1    1    1    1    1    1
   1    1    1    1    1    1    1    1    1    1    1    1    1    1    1
   1    1    1    1    1    1    1    1    1    1    1    1    1    1    1
   1    1    1    1    1    1    1    1    1    1    1    1    1    1    1
   1    1    1    1    1    1    1    1    1    1    1    1    1    1    1
   1    1    1    1    1    1    1    1    1    1    1    1    1    1    1
   1    1    1    1    1    1    1    1    1    1    1    1    1    1    1
   1    1    1    1    1    1    1    1    1    1    1    1    1    1    1
   1    1    1    1    1    1    1    1    1    1    1    1    1    1    1
   1    1    1    1    1    1    1    1    1    1    1    1    1    1    1
   1    1    1    1    1    1    1    1    1    1    1    1    1    1    1
   1    1    1    1    1    1    1    1    1    1    1    1    1    1    1
   1    1    1    1    1    1    1    1    1    1    1    1    1    1    1
   1    1    1    1    1    1    1    1    1    1    1    1    1    1    1
   1    1    1    1    1    1    1    1    1    1    1    1    1    1    1
   1    1    1    1    1    1    1    1    1    1    1    1    1    1    1
   1    1    1    1    1    1    1    1    1    1    1    1    1    1    1
   1    1    1    1    1    1    1    1    1    1    1    1    1    1    1
   1    1    1    1    1    1    1    1    1    1    1    1    1    1    1
   1    1    1    1    1    1    1    1    1    1    1    1    1    1    1
   1    1    1    1    1    1    1    1    1    1    1    1    1    1    1
   1    1    1    1    1    1    1    1    1    1    1    1    1    1    1
   1    1    1    1    1    1    1    1    1    1    1    1    1    1    1
   1    1    1    1    1    1    1    1    1    1    1    1    1    1    1
   1    1    1    1    1    1    1    1    1    1    1    1    1    1    1
   1    1    1    1    1    1    1    1    1    1    1    1    1    1    1
   1    1    1    1    1    1    1    1    1    1    1    1    1    1    1
   1    1    1    1    1    1    1    1    1    1    1    1    1    1    1
   1    1    1    1    1    1    1    1    1    1    1    1    1    1    1
   1    1    1    1    1    1    1    1    1    1    1    1    1    1    1
   1    1    1    1    1    1    1    1    1    1    1    1    1    1    1
   1    1    1    1    1    1    1    1    1    1    1    1    1    1    1
   1    1    1    1    1    1    1    1    1    1    1    1    1    1    1
   1    1    1    1    1    1    1    1    1    1    1    1    1    1    1
   1    1    1    1    1    1    1    1    1    1    1    1    1    1    1
   1    1    1    1    1    1    1    1    1    1    1    1    1    1    1
   1    1    1    1    1    1    1    1    1    1    1    1    1    1    1
   1    1    1    1    1    1    1    1    1    1    1    1    1    1    1
   1    1    1    1    1    1    1    1    1    1    1    1    1    1    1
   1    1    1    1    1    1    1    1    1    1    1    1    1    1    1
   1    1    1    1    1    1    1    1    1    1    1    1    1    1    1
   1    1    1    1    1    1    1    1    1    1    1    1    1    1    1
   1    1    1    1    1    1    1    1    1    1    1    1    1    1    1
   1    1    1    1    1    1    1    1    1    1    1    1    1    1    1
   1    1    1    1    1    1    1    1    1    1    1    1    1    1    1
   1    1    1    1    1    1    1    1    1
-4	-4	-4	1	1	-0.001016	0.000000
-4	-4	-4	2	1	0.000135	0.000000
-4	-4	-4	3	1	0.000138	-0.000017
-4	-4	-4	4	1	0.000137	0.000017
-4	-4	-4	5	1	0.000000	0.000000
-4	-4	-4	6	1	0.000017	0.000017
-4	-4	-4	7	1	-0.000017	0.000000
-4	-4	-4	8	1	0.000000	-0.000017
-4	-4	-4	1	2	-0.000135	0.000000
-4	-4	-4	2	2	0.000246	0.000000
-4	-4	-4	3	2	0.000020	-0.000006
-4	-4	-4	4	2	0.000020	0.000006
-4	-4	-4	5	2	0.000017	0.000017
-4	-4	-4	6	2	0.000000	0.000000
-4	-4	-4	7	2	0.000026	-0.000006
-4	-4	-4	8	2	-0.000006	0.000026
-4	-4	-4	1	3	-0.000138	-0.000017
-4	-4	-4	2	3	0.000020	0.000006
-4	-4	-4	3	3	0.000246	0.000000
-4	-4	-4	4	3	0.000020	-0.000026
-4	-4	-4	5	3	-0.000017	0.000000
-4	-4	-4	6	3	-0.000026	0.000006
-4	-4	-4	7	3	0.000000	0.000000
-4	-4	-4	8	3	0.000006	-0.000006
-4	-4	-4	1	4	-0.000137	0.000017
-4	-4	-4	2	4	0.000020	-0.000006
-4	-4	-4	3	4	0.000020	0.000026
-4	-4	-4	4	4	0.000246	0.000000
-4	-4	-4	5	4	0.000000	-0.000017
-4	-4	-4	6	4	0.000006	-0.000026
-4	-4	-4	7	4	-0.000006	0.000006
-4	-4	-4	8	4	0.000000	0.000000
-4	-4	-4	1	5	0.000000	0.000000
-4	-4	-4	2	5	-0.000017	0.000017
-4	-4	-4	3	5	0.000017	0.000000
-4	-4	-4	4	5	0.000000	-0.000017
-4	-4	-4	5	5	-0.001016	0.000000
-4	-4	-4	6	5	0.000135	0.000000
-4	-4	-4	7	5	0.000138	0.000017
-4	-4	-4	8	5	0.000137	-0.000017
-4	-4	-4	1	6	-0.000017	0.000017
-4	-4	-4	2	6	0.000000	0.000000
-4	-4	-4	3	6	-0.000026	-0.000006
-4	-4	-4	4	6	0.000006	0.000026
-4	-4	-4	5	6	-0.000135	0.000000
-4	-4	-4	6	6	0.000246	0.000000
-4	-4	-4	7	6	0.000020	0.000006
-4	-4	-4	8	6	0.000020	-0.000006
-4	-4	-4	1	7	0.000017	0.000000
-4	-4	-4	2	7	0.000026	0.000006
-4	-4	-4	3	7	0.000000	0.000000
-4	-4	-4	4	7	-0.000006	-0.000006
-4	-4	-4	5	7	-0.000138	0.000017
-4	-4	-4	6	7	0.000020	-0.000006
-4	-4	-4	7	7	0.000246	0.000000
-4	-4	-4	8	7	0.000020	0.000026
-4	-4	-4	1	8	0.000000	-0.000017
-4	-4	-4	2	8	-0.000006	-0.000026
-4	-4	-4	3	8	0.000006	0.000006
-4	-4	-4	4	8	0.000000	0.000000
-4	-4	-4	5	8	-0.000137	-0.000017
-4	-4	-4	6	8	0.000020	0.000006
-4	-4	-4	7	8	0.000020	-0.000026
-4	-4	-4	8	8	0.000246	0.000000
-4	-4	-3	1	1	-0.000683	0.000000
-4	-4	-3	2	1	0.000376	0.000000
-4	-4	-3	3	1	0.000012	0.000000
-4	-4	-3	4	1	0.000012	0.000000
-4	-4	-3	5	1	0.000000	0.000000
-4	-4	-3	6	1	-0.000002	-0.000002
-4	-4	-3	7	1	-0.000047	-0.000004
-4	-4	-3	8	1	-0.000004	-0.000046
-4	-4	-3	1	2	-0.000376	0.000000
-4	-4	-3	2	2	0.000247	0.000000
-4	-4	-3	3	2	-0.000052	0.000009
-4	-4	-3	4	2	-0.000051	-0.000009
-4	-4	-3	5	2	-0.000002	-0.000002
-4	-4	-3	6	2	0.000000	0.000000
-4	-4	-3	7	2	-0.000007	0.000007
-4	-4	-3	8	2	0.000007	-0.000007
-4	-4	-3	1	3	-0.000012	0.000000
-4	-4	-3	2	3	-0.000052	-0.000009
-4	-4	-3	3	3	0.000234	0.000000
-4	-4	-3	4	3	-0.000089	0.000047
-4	-4	-3	5	3	-0.000047	-0.000004
-4	-4	-3	6	3	0.000007	-0.000007
-4	-4	-3	7	3	0.000000	0.000000
-4	-4	-3	8	3	-0.000016	0.000017
-4	-4	-3	1	4	-0.000012	0.000000
-4	-4	-3	2	4	-0.000051	0.000009
-4	-4	-3	3	4	-0.000089	-0.000047
-4	-4	-3	4	4	0.000237	0.000000
-4	-4	-3	5	4	-0.000004	-0.000046
-4	-4	-3	6	4	-0.000007	0.000007
-4	-4	-3	7	4	0.000016	-0.000017
-4	-4	-3	8	4	0.000000	0.000000
-4	-4	-3	1	5	0.000000	0.000000
-4	-4	-3	2	5	0.000002	-0.000002
-4	-4	-3	3	5	0.000047	-0.000004
-4	-4	-3	4	5	0.000004	-0.000046
-4	-4	-3	5	5	-0.000683	0.000000
-4	-4	-3	6	5	0.000376	0.000000
-4	-4	-3	7	5	0.000012	0.000000
-4	-4	-3	8	5	0.000012	0.000000
-4	-4	-3	1	6	0.000002	-0.000002
-4	-4	-3	2	6	0.000000	0.000000
-4	-4	-3	3	6	0.000007	0.000007
-4	-4	-3	4	6	-0.000007	-0.000007
-4	-4	-3	5	6	-0.000376	0.000000
-4	-4	-3	6	6	0.000247	0.000000
-4	-4	-3	7	6	-0.000052	-0.000009
-4	-4	-3	8	6	-0.000051	0.000009
-4	-4	-3	1	7	0.000047	-0.000004
-4	-4	-3	2	7	-0.000007	-0.000007
-4	-4	-3	3	7	0.000000	0.000000
-4	-4	-3	4	7	0.000016	0.000017
-4	-4	-3	5	7	-0.000012	0.000000
-4	-4	-3	6	7	-0.000052	0.000009
-4	-4	-3	7	7	0.000234	0.000000
-4	-4	-3	8	7	-0.000089	-0.000047
-4	-4	-3	1	8	0.000004	-0.000046
-4	-4	-3	2	8	0.000007	0.000007
-4	-4	-3	3	8	-0.000016	-0.000017
-4	-4	-3	4	8	0.000000	0.000000
-4	-4	-3	5	8	-0.000012	0.000000
-4	-4	-3	6	8	-0.000051	-0.000009
-4	-4	-3	7	8	-0.000089	0.000047
-4	-4	-3	8	8	0.000237	0.000000
-4	-4	-2	1	1	-0.000627	0.000000
-4	-4	-2	2	1	0.000688	0.000000
-4	-4	-2	3	1	0.000039	0.000005
-4	-4	-2	4	1	0.000038	-0.000005
-4	-4	-2	5	1	0.000000	0.000000
-4	-4	-2	6	1	-0.000005	-0.000005
-4	-4	-2	7	1	-0.000102	0.000012
-4	-4	-2	8	1	0.000012	-0.000102
-4	-4	-2	1	2	-0.000688	0.000000
-4	-4	-2	2	2	0.000099	0.000000
-4	-4	-2	3	2	0.000062	0.000004
-4	-4	-2	4	2	0.000062	-0.000004
-4	-4	-2	5	2	-0.000005	-0.000005
-4	-4	-2	6	2	0.000000	0.000000
-4	-4	-2	7	2	-0.000023	-0.000007
-4	-4	-2	8	2	-0.000008	-0.000023
-4	-4	-2	1	3	-0.000039	0.000005
-4	-4	-2	2	3	0.000062	-0.000004
-4	-4	-2	3	3	0.000270	0.000000
-4	-4	-2	4	3	-0.000011	0.000058
-4	-4	-2	5	3	-0.000102	0.000012
-4	-4	-2	6	3	0.000023	0.000007
-4	-4	-2	7	3	0.000000	0.000000
-4	-4	-2	8	3	-0.000026	0.000026
-4	-4	-2	1	4	-0.000038	-0.000005
-4	-4	-2	2	4	0.000062	0.000004
-4	-4	-2	3	4	-0.000011	-0.000058
-4	-4	-2	4	4	0.000270	0.000000
-4	-4	-2	5	4	0.000012	-0.000102
-4	-4	-2	6	4	0.000008	0.000023
-4	-4	-2	7	4	0.000026	-0.000026
-4	-4	-2	8	4	0.000000	0.000000
-4	-4	-2	1	5	0.000000	0.000000
-4	-4	-2	2	5	0.000005	-0.000005
-4	-4	-2	3	5	0.000102	0.000012
-4	-4	-2	4	5	-0.000012	-0.000102
-4	-4	-2	5	5	-0.000627	0.000000
-4	-4	-2	6	5	0.000688	0.000000
-4	-4	-2	7	5	0.000039	-0.000005
-4	-4	-2	8	5	0.000038	0.000005
-4	-4	-2	1	6	0.000005	-0.000005
-4	-4	-2	2	6	0.000000	0.000000
-4	-4	-2	3	6	0.000023	-0.000007
-4	-4	-2	4	6	0.000008	-0.000023
-4	-4	-2	5	6	-0.000688	0.000000
-4	-4	-2	6	6	0.000099	0.000000
-4	-4	-2	7	6	0.000062	-0.000004
-4	-4	-2	8	6	0.000062	0.000004
-4	-4	-2	1	7	0.000102	0.000012
-4	-4	-2	2	7	-0.000023	0.000007
-4	-4	-2	3	7	0.000000	0.000000
-4	-4	-2	4	7	0.000026	0.000026
-4	-4	-2	5	7	-0.000039	-0.000005
-4	-4	-2	6	7	0.000062	0.000004
-4	-4	-2	7	7	0.000270	0.000000
-4	-4	-2	8	7	-0.000011	-0.000058
-4	-4	-2	1	8	-0.000012	-0.000102
-4	-4	-2	2	8	-0.000008	0.000023
-4	-4	-2	3	8	-0.000026	-0.000026
-4	-4	-2	4	8	0.000000	0.000000
-4	-4	-2	5	8	-0.000038	0.000005
-4	-4	-2	6	8	0.000062	-0.000004
-4	-4	-2	7	8	-0.000011	0.000058
-4	-4	-2	8	8	0.000270	0.000000
-4	-4	-1	1	1	-0.001558	0.000000
-4	-4	-1	2	1	0.000819	0.000000
-4	-4	-1	3	1	0.000343	-0.000035
-4	-4	-1	4	1	0.000339	0.000036
-4	-4	-1	5	1	0.000000	0.000000
-4	-4	-1	6	1	0.000004	0.000003
-4	-4	-1	7	1	-0.000104	0.000003
-4	-4	-1	8	1	0.000004	-0.000104
-4	-4	-1	1	2	-0.000819	0.000000
-4	-4	-1	2	2	-0.000278	0.000000
-4	-4	-1	3	2	0.000147	-0.000006
-4	-4	-1	4	2	0.000145	0.000006
-4	-4	-1	5	2	0.000004	0.000003
-4	-4	-1	6	2	0.000000	0.000000
-4	-4	-1	7	2	-0.000005	-0.000019
-4	-4	-1	8	2	-0.000019	-0.000005
-4	-4	-1	1	3	-0.000343	-0.000035
-4	-4	-1	2	3	0.000147	0.000006
-4	-4	-1	3	3	0.000973	0.000000
-4	-4	-1	4	3	0.000171	0.000090
-4	-4	-1	5	3	-0.000104	0.000003
-4	-4	-1	6	3	0.000005	0.000019
-4	-4	-1	7	3	0.000000	0.000000
-4	-4	-1	8	3	-0.000030	0.000031
-4	-4	-1	1	4	-0.000339	0.000036
-4	-4	-1	2	4	0.000145	-0.000006
-4	-4	-1	3	4	0.000171	-0.000090
-4	-4	-1	4	4	0.000969	0.000000
-4	-4	-1	5	4	0.000004	-0.000104
-4	-4	-1	6	4	0.000019	0.000005
-4	-4	-1	7	4	0.000030	-0.000031
-4	-4	-1	8	4	0.000000	0.000000
-4	-4	-1	1	5	0.000000	0.000000
-4	-4	-1	2	5	-0.000004	0.000003
-4	-4	-1	3	5	0.000104	0.000003
-4	-4	-1	4	5	-0.000004	-0.000104
-4	-4	-1	5	5	-0.001558	0.000000
-4	-4	-1	6	5	0.000819	0.000000
-4	-4	-1	7	5	0.000343	0.000035
-4	-4	-1	8	5	0.000339	-0.000036
-4	-4	-1	1	6	-0.000004	0.000003
-4	-4	-1	2	6	0.000000	0.000000
-4	-4	-1	3	6	0.000005	-0.000019
-4	-4	-1	4	6	0.000019	-0.000005
-4	-4	-1	5	6	-0.000819	0.000000
-4	-4	-1	6	6	-0.000278	0.000000
-4	-4	-1	7	6	0.000147	0.000006
-4	-4	-1	8	6	0.000145	-0.000006
-4	-4	-1	1	7	0.000104	0.000003
-4	-4	-1	2	7	-0.000005	0.000019
-4	-4	-1	3	7	0.000000	0.000000
-4	-4	-1	4	7	0.000030	0.000031
-4	-4	-1	5	7	-0.000343	0.000035
-4	-4	-1	6	7	0.000147	-0.000006
-4	-4	-1	7	7	0.000973	0.000000
-4	-4	-1	8	7	0.000171	-0.000090
-4	-4	-1	1	8	-0.000004	-0.000104
-4	-4	-1	2	8	-0.000019	0.000005
-4	-4	-1	3	8	-0.000030	-0.000031
-4	-4	-1	4	8	0.000000	0.000000
-4	-4	-1	5	8	-0.000339	-0.000036
-4	-4	-1	6	8	0.000145	0.000006
-4	-4	-1	7	8	0.000171	0.000090
-4	-4	-1	8	8	0.000969	0.000000
-4	-4	0	1	1	-0.002807	0.000000
-4	-4	0	2	1	0.000027	0.000000
-4	-4	0	3	1	0.000620	-0.000027
-4	-4	0	4	1	0.000614	0.000028
-4	-4	0	5	1	0.000000	0.000000
-4	-4	0	6	1	0.000010	0.000010
-4	-4	0	7	1	0.000006	-0.000001
-4	-4	0	8	1	-0.000001	0.000007
-4	-4	0	1	2	-0.000027	0.000000
-4	-4	0	2	2	-0.000538	0.000000
-4	-4	0	3	2	-0.000005	0.000000
-4	-4	0	4	2	-0.000004	0.000000
-4	-4	0	5	2	0.000010	0.000010
-4	-4	0	6	2	0.000000	0.000000
-4	-4	0	7	2	0.000008	0.000003
-4	-4	0	8	2	0.000002	0.000008
-4	-4	0	1	3	-0.000620	-0.000027
-4	-4	0	2	3	-0.000005	0.000000
-4	-4	0	3	3	0.001431	0.000000
-4	-4	0	4	3	0.000013	0.000177
-4	-4	0	5	3	0.000006	-0.000001
-4	-4	0	6	3	-0.000008	-0.000003
-4	-4	0	7	3	0.000000	0.000000
-4	-4	0	8	3	0.000001	-0.000001
-4	-4	0	1	4	-0.000614	0.000028
-4	-4	0	2	4	-0.000004	0.000000
-4	-4	0	3	4	0.000013	-0.000177
-4	-4	0	4	4	0.001433	0.000000
-4	-4	0	5	4	-0.000001	0.000007
-4	-4	0	6	4	-0.000002	-0.000008
-4	-4	0	7	4	-0.000001	0.000001
-4	-4	0	8	4	0.000000	0.000000
-4	-4	0	1	5	0.000000	0.000000
-4	-4	0	2	5	-0.000010	0.000010
-4	-4	0	3	5	-0.000006	-0.000001
-4	-4	0	4	5	0.000001	0.000007
-4	-4	0	5	5	-0.002807	0.000000
-4	-4	0	6	5	0.000027	0.000000
-4	-4	0	7	5	0.000620	0.000027
-4	-4	0	8	5	0.000614	-0.000028
-4	-4	0	1	6	-0.000010	0.000010
-4	-4	0	2	6	0.000000	0.000000
-4	-4	0	3	6	-0.000008	0.000003
-4	-4	0	4	6	-0.000002	0.000008
-4	-4	0	5	6	-0.000027	0.000000
-4	-4	0	6	6	-0.000538	0.000000
-4	-4	0	7	6	-0.000005	0.000000
-4	-4	0	8	6	-0.000004	0.000000
-4	-4	0	1	7	-0.000006	-0.000001
-4	-4	0	2	7	0.000008	-0.000003
-4	-4	0	3	7	0.000000	0.000000
-4	-4	0	4	7	-0.000001	-0.000001
-4	-4	0	5	7	-0.000620	0.000027
-4	-4	0	6	7	-0.000005	0.000000
-4	-4	0	7	7	0.001431	0.000000
-4	-4	0	8	7	0.000013	-0.000177
-4	-4	0	1	8	0.000001	0.000007
-4	-4	0	2	8	0.000002	-0.000008
-4	-4	0	3	8	0.000001	0.000001
-4	-4	0	4	8	0.000000	0.000000
-4	-4	0	5	8	-0.000614	-0.000028
-4	-4	0	6	8	-0.000004	0.000000
-4	-4	0	7	8	0.000013	0.000177
-4	-4	0	8	8	0.001433	0.000000
-4	-4	1	1	1	-0.001578	0.000000
-4	-4	1	2	1	-0.000750	0.000000
-4	-4	1	3	1	0.000335	-0.000032
-4	-4	1	4	1	0.000331	0.000032
-4	-4	1	5	1	0.000000	0.000000
-4	-4	1	6	1	0.000003	0.000003
-4	-4	1	7	1	0.000101	-0.000004
-4	-4	1	8	1	-0.000004	0.000101
-4	-4	1	1	2	0.000750	0.000000
-4	-4	1	2	2	-0.000322	0.000000
-4	-4	1	3	2	-0.000099	0.000003
-4	-4	1	4	2	-0.000098	-0.000003
-4	-4	1	5	2	0.000003	0.000003
-4	-4	1	6	2	0.000000	0.000000
-4	-4	1	7	2	0.000007	-0.000019
-4	-4	1	8	2	-0.000019	0.000007
-4	-4	1	1	3	-0.000335	-0.000032
-4	-4	1	2	3	-0.000099	-0.000003
-4	-4	1	3	3	0.000884	0.000000
-4	-4	1	4	3	0.000233	0.000077
-4	-4	1	5	3	0.000101	-0.000004
-4	-4	1	6	3	-0.000007	0.000019
-4	-4	1	7	3	0.000000	0.000000
-4	-4	1	8	3	0.000011	-0.000011
-4	-4	1	1	4	-0.000331	0.000032
-4	-4	1	2	4	-0.000098	0.000003
-4	-4	1	3	4	0.000233	-0.000077
-4	-4	1	4	4	0.000879	0.000000
-4	-4	1	5	4	-0.000004	0.000101
-4	-4	1	6	4	0.000019	-0.000007
-4	-4	1	7	4	-0.000011	0.000011
-4	-4	1	8	4	0.000000	0.000000
-4	-4	1	1	5	0.000000	0.000000
-4	-4	1	2	5	-0.000003	0.000003
-4	-4	1	3	5	-0.000101	-0.000004
-4	-4	1	4	5	0.000004	0.000101
-4	-4	1	5	5	-0.001578	0.000000
-4	-4	1	6	5	-0.000750	0.000000
-4	-4	1	7	5	0.000335	0.000032
-4	-4	1	8	5	0.000331	-0.000032
-4	-4	1	1	6	-0.000003	0.000003
-4	-4	1	2	6	0.000000	0.000000
-4	-4	1	3	6	-0.000007	-0.000019
-4	-4	1	4	6	0.000019	0.000007
-4	-4	1	5	6	0.000750	0.000000
-4	-4	1	6	6	-0.000322	0.000000
-4	-4	1	7	6	-0.000099	-0.000003
-4	-4	1	8	6	-0.000098	0.000003
-4	-4	1	1	7	-0.000101	-0.000004
-4	-4	1	2	7	0.000007	0.000019
-4	-4	1	3	7	0.000000	0.000000
-4	-4	1	4	7	-0.000011	-0.000011
-4	-4	1	5	7	-0.000335	0.000032
-4	-4	1	6	7	-0.000099	0.000003
-4	-4	1	7	7	0.000884	0.000000
-4	-4	1	8	7	0.000233	-0.000077
-4	-4	1	1	8	0.000004	0.000101
-4	-4	1	2	8	-0.000019	-0.000007
-4	-4	1	3	8	0.000011	0.000011
-4	-4	1	4	8	0.000000	0.000000
-4	-4	1	5	8	-0.000331	-0.000032
-4	-4	1	6	8	-0.000098	-0.000003
-4	-4	1	7	8	0.000233	0.000077
-4	-4	1	8	8	0.000879	0.000000
-4	-4	2	1	1	-0.000633	0.000000
-4	-4	2	2	1	-0.000651	0.000000
-4	-4	2	3	1	0.000041	0.000015
-4	-4	2	4	1	0.000041	-0.000015
-4	-4	2	5	1	0.000000	0.000000
-4	-4	2	6	1	-0.000011	-0.000010
-4	-4	2	7	1	0.000100	-0.000012
-4	-4	2	8	1	-0.000012	0.000100
-4	-4	2	1	2	0.000651	0.000000
-4	-4	2	2	2	0.000060	0.000000
-4	-4	2	3	2	-0.000057	-0.000005
-4	-4	2	4	2	-0.000057	0.000005
-4	-4	2	5	2	-0.000011	-0.000010
-4	-4	2	6	2	0.000000	0.000000
-4	-4	2	7	2	-0.000015	-0.000011
-4	-4	2	8	2	-0.000011	-0.000015
-4	-4	2	1	3	-0.000041	0.000015
-4	-4	2	2	3	-0.000057	0.000005
-4	-4	2	3	3	0.000302	0.000000
-4	-4	2	4	3	-0.000022	0.000068
-4	-4	2	5	3	0.000100	-0.000012
-4	-4	2	6	3	0.000015	0.000011
-4	-4	2	7	3	0.000000	0.000000
-4	-4	2	8	3	0.000031	-0.000031
-4	-4	2	1	4	-0.000041	-0.000015
-4	-4	2	2	4	-0.000057	-0.000005
-4	-4	2	3	4	-0.000022	-0.000068
-4	-4	2	4	4	0.000303	0.000000
-4	-4	2	5	4	-0.000012	0.000100
-4	-4	2	6	4	0.000011	0.000015
-4	-4	2	7	4	-0.000031	0.000031
-4	-4	2	8	4	0.000000	0.000000
-4	-4	2	1	5	0.000000	0.000000
-4	-4	2	2	5	0.000011	-0.000010
-4	-4	2	3	5	-0.000100	-0.000012
-4	-4	2	4	5	0.000012	0.000100
-4	-4	2	5	5	-0.000633	0.000000
-4	-4	2	6	5	-0.000651	0.000000
-4	-4	2	7	5	0.000041	-0.000015
-4	-4	2	8	5	0.000041	0.000015
-4	-4	2	1	6	0.000011	-0.000010
-4	-4	2	2	6	0.000000	0.000000
-4	-4	2	3	6	0.000015	-0.000011
-4	-4	2	4	6	0.000011	-0.000015
-4	-4	2	5	6	0.000651	0.000000
-4	-4	2	6	6	0.000060	0.000000
-4	-4	2	7	6	-0.000057	0.000005
-4	-4	2	8	6	-0.000057	-0.000005
-4	-4	2	1	7	-0.000100	-0.000012
-4	-4	2	2	7	-0.000015	0.000011
-4	-4	2	3	7	0.000000	0.000000
-4	-4	2	4	7	-0.000031	-0.000031
-4	-4	2	5	7	-0.000041	-0.000015
-4	-4	2	6	7	-0.000057	-0.000005
-4	-4	2	7	7	0.000302	0.000000
-4	-4	2	8	7	-0.000022	-0.000068
-4	-4	2	1	8	0.000012	0.000100
-4	-4	2	2	8	-0.000011	0.000015
-4	-4	2	3	8	0.000031	0.000031
-4	-4	2	4	8	0.000000	0.000000
-4	-4	2	5	8	-0.000041	0.000015
-4	-4	2	6	8	-0.000057	0.000005
-4	-4	2	7	8	-0.000022	0.000068
-4	-4	2	8	8	0.000303	0.000000
-4	-4	3	1	1	-0.000688	0.000000
-4	-4	3	2	1	-0.000363	0.000000
-4	-4	3	3	1	0.000011	0.000011
-4	-4	3	4	1	0.000011	-0.000011
-4	-4	3	5	1	0.000000	0.000000
-4	-4	3	6	1	-0.000002	-0.000002
-4	-4	3	7	1	0.000049	0.000005
-4	-4	3	8	1	0.000005	0.000049
-4	-4	3	1	2	0.000363	0.000000
-4	-4	3	2	2	0.000238	0.000000
-4	-4	3	3	2	0.000026	-0.000007
-4	-4	3	4	2	0.000026	0.000008
-4	-4	3	5	2	-0.000002	-0.000002
-4	-4	3	6	2	0.000000	0.000000
-4	-4	3	7	2	-0.000004	0.000007
-4	-4	3	8	2	0.000007	-0.000004
-4	-4	3	1	3	-0.000011	0.000011
-4	-4	3	2	3	0.000026	0.000007
-4	-4	3	3	3	0.000189	0.000000
-4	-4	3	4	3	-0.000076	0.000041
-4	-4	3	5	3	0.000049	0.000005
-4	-4	3	6	3	0.000004	-0.000007
-4	-4	3	7	3	0.000000	0.000000
-4	-4	3	8	3	0.000017	-0.000017
-4	-4	3	1	4	-0.000011	-0.000011
-4	-4	3	2	4	0.000026	-0.000008
-4	-4	3	3	4	-0.000076	-0.000041
-4	-4	3	4	4	0.000191	0.000000
-4	-4	3	5	4	0.000005	0.000049
-4	-4	3	6	4	-0.000007	0.000004
-4	-4	3	7	4	-0.000017	0.000017
-4	-4	3	8	4	0.000000	0.000000
-4	-4	3	1	5	0.000000	0.000000
-4	-4	3	2	5	0.000002	-0.000002
-4	-4	3	3	5	-0.000049	0.000005
-4	-4	3	4	5	-0.000005	0.000049
-4	-4	3	5	5	-0.000688	0.000000
-4	-4	3	6	5	-0.000363	0.000000
-4	-4	3	7	5	0.000011	-0.000011
-4	-4	3	8	5	0.000011	0.000011
-4	-4	3	1	6	0.000002	-0.000002
-4	-4	3	2	6	0.000000	0.000000
-4	-4	3	3	6	0.000004	0.000007
-4	-4	3	4	6	-0.000007	-0.000004
-4	-4	3	5	6	0.000363	0.000000
-4	-4	3	6	6	0.000238	0.000000
-4	-4	3	7	6	0.000026	0.000007
-4	-4	3	8	6	0.000026	-0.000008
-4	-4	3	1	7	-0.000049	0.000005
-4	-4	3	2	7	-0.000004	-0.000007
-4	-4	3	3	7	0.000000	0.000000
-4	-4	3	4	7	-0.000017	-0.000017
-4	-4	3	5	7	-0.000011	-0.000011
-4	-4	3	6	7	0.000026	-0.000007
-4	-4	3	7	7	0.000189	0.000000
-4	-4	3	8	7	-0.000076	-0.000041
-4	-4	3	1	8	-0.000005	0.000049
-4	-4	3	2	8	0.000007	0.000004
-4	-4	3	3	8	0.000017	0.000017
-4	-4	3	4	8	0.000000	0.000000
-4	-4	3	5	8	-0.000011	0.000011
-4	-4	3	6	8	0.000026	0.000008
-4	-4	3	7	8	-0.000076	0.000041
-4	-4	3	8	8	0.000191	0.000000
-4	-4	4	1	1	-0.001009	0.000000
-4	-4	4	2	1	-0.000155	0.000000
-4	-4	4	3	1	0.000155	-0.000020
-4	-4	4	4	1	0.000153	0.000020
-4	-4	4	5	1	0.000000	0.000000
-4	-4	4	6	1	0.000018	0.000018
-4	-4	4	7	1	0.000018	0.000004
-4	-4	4	8	1	0.000004	0.000018
-4	-4	4	1	2	0.000155	0.000000
-4	-4	4	2	2	0.000259	0.000000
-4	-4	4	3	2	-0.000052	0.000004
-4	-4	4	4	2	-0.000051	-0.000004
-4	-4	4	5	2	0.000018	0.000018
-4	-4	4	6	2	0.000000	0.000000
-4	-4	4	7	2	0.000024	-0.000005
-4	-4	4	8	2	-0.000005	0.000023
-4	-4	4	1	3	-0.000155	-0.000020
-4	-4	4	2	3	-0.000052	-0.000004
-4	-4	4	3	3	0.000235	0.000000
-4	-4	4	4	3	0.000044	-0.000026
-4	-4	4	5	3	0.000018	0.000004
-4	-4	4	6	3	-0.000024	0.000005
-4	-4	4	7	3	0.000000	0.000000
-4	-4	4	8	3	-0.000001	0.000002
-4	-4	4	1	4	-0.000153	0.000020
-4	-4	4	2	4	-0.000051	0.000004
-4	-4	4	3	4	0.000044	0.000026
-4	-4	4	4	4	0.000234	0.000000
-4	-4	4	5	4	0.000004	0.000018
-4	-4	4	6	4	0.000005	-0.000023
-4	-4	4	7	4	0.000001	-0.000002
-4	-4	4	8	4	0.000000	0.000000
-4	-4	4	1	5	0.000000	0.000000
-4	-4	4	2	5	-0.000018	0.000018
-4	-4	4	3	5	-0.000018	0.000004
-4	-4	4	4	5	-0.000004	0.000018
-4	-4	4	5	5	-0.001009	0.000000
-4	-4	4	6	5	-0.000155	0.000000
-4	-4	4	7	5	0.000155	0.000020
-4	-4	4	8	5	0.000153	-0.000020
-4	-4	4	1	6	-0.000018	0.000018
-4	-4	4	2	6	0.000000	0.000000
-4	-4	4	3	6	-0.000024	-0.000005
-4	-4	4	4	6	0.000005	0.000023
-4	-4	4	5	6	0.000155	0.000000
-4	-4	4	6	6	0.000259	0.000000
-4	-4	4	7	6	-0.000052	-0.000004
-4	-4	4	8	6	-0.000051	0.000004
-4	-4	4	1	7	-0.000018	0.000004
-4	-4	4	2	7	0.000024	0.000005
-4	-4	4	3	7	0.000000	0.000000
-4	-4	4	4	7	0.000001	0.000002
-4	-4	4	5	7	-0.000155	0.000020
-4	-4	4	6	7	-0.000052	0.000004
-4	-4	4	7	7	0.000235	0.000000
-4	-4	4	8	7	0.000044	0.000026
-4	-4	4	1	8	-0.000004	0.000018
-4	-4	4	2	8	-0.000005	-0.000023
-4	-4	4	3	8	-0.000001	-0.000002
-4	-4	4	4	8	0.000000	0.000000
-4	-4	4	5	8	-0.000153	-0.000020
-4	-4	4	6	8	-0.000051	-0.000004
-4	-4	4	7	8	0.000044	-0.000026
-4	-4	4	8	8	0.000234	0.000000
-4	-3	-4	1	1	-0.000684	0.000000
-4	-3	-4	2	1	0.000007	-0.000004
-4	-3	-4	3	1	0.000012	-0.000047
-4	-3	-4	4	1	0.000376	-0.000002
-4	-3	-4	5	1	0.000000	0.000000
-4	-3	-4	6	1	0.000000	0.000046
-4	-3	-4	7	1	0.000001	0.000004
-4	-3	-4	8	1	0.000000	0.000003
-4	-3	-4	1	2	-0.000007	-0.000004
-4	-3	-4	2	2	0.000239	0.000000
-4	-3	-4	3	2	-0.000088	0.000016
-4	-3	-4	4	2	-0.000056	-0.000007
-4	-3	-4	5	2	0.000000	0.000046
-4	-3	-4	6	2	0.000000	0.000000
-4	-3	-4	7	2	-0.000047	0.000017
-4	-3	-4	8	2	0.000009	-0.000007
-4	-3	-4	1	3	-0.000012	-0.000047
-4	-3	-4	2	3	-0.000088	-0.000016
-4	-3	-4	3	3	0.000235	0.000000
-4	-3	-4	4	3	-0.000053	0.000007
-4	-3	-4	5	3	0.000001	0.000004
-4	-3	-4	6	3	0.000047	-0.000017
-4	-3	-4	7	3	0.000000	0.000000
-4	-3	-4	8	3	-0.000009	0.000007
-4	-3	-4	1	4	-0.000376	-0.000002
-4	-3	-4	2	4	-0.000056	0.000007
-4	-3	-4	3	4	-0.000053	-0.000007
-4	-3	-4	4	4	0.000245	0.000000
-4	-3	-4	5	4	0.000000	0.000003
-4	-3	-4	6	4	-0.000009	0.000007
-4	-3	-4	7	4	0.000009	-0.000007
-4	-3	-4	8	4	0.000000	0.000000
-4	-3	-4	1	5	0.000000	0.000000
-4	-3	-4	2	5	0.000000	0.000046
-4	-3	-4	3	5	-0.000001	0.000004
-4	-3	-4	4	5	0.000000	0.000003
-4	-3	-4	5	5	-0.000684	0.000000
-4	-3	-4	6	5	0.000007	0.000004
-4	-3	-4	7	5	0.000012	0.000047
-4	-3	-4	8	5	0.000376	0.000002
-4	-3	-4	1	6	0.000000	0.000046
-4	-3	-4	2	6	0.000000	0.000000
-4	-3	-4	3	6	0.000047	0.000017
-4	-3	-4	4	6	-0.000009	-0.000007
-4	-3	-4	5	6	-0.000007	0.000004
-4	-3	-4	6	6	0.000239	0.000000
-4	-3	-4	7	6	-0.000088	-0.000016
-4	-3	-4	8	6	-0.000056	0.000007
-4	-3	-4	1	7	-0.000001	0.000004
-4	-3	-4	2	7	-0.000047	-0.000017
-4	-3	-4	3	7	0.000000	0.000000
-4	-3	-4	4	7	0.000009	0.000007
-4	-3	-4	5	7	-0.000012	0.000047
-4	-3	-4	6	7	-0.000088	0.000016
-4	-3	-4	7	7	0.000235	0.000000
-4	-3	-4	8	7	-0.000053	-0.000007
-4	-3	-4	1	8	0.000000	0.000003
-4	-3	-4	2	8	0.000009	0.000007
-4	-3	-4	3	8	-0.000009	-0.000007
-4	-3	-4	4	8	0.000000	0.000000
-4	-3	-4	5	8	-0.000376	0.000002
-4	-3	-4	6	8	-0.000056	-0.000007
-4	-3	-4	7	8	-0.000053	0.000007
-4	-3	-4	8	8	0.000245	0.000000
-4	-3	-3	1	1	-0.000719	0.000000
-4	-3	-3	2	1	0.000216	0.000004
-4	-3	-3	3	1	0.000119	0.000000
-4	-3	-3	4	1	0.000217	0.000022
-4	-3	-3	5	1	0.000000	0.000000
-4	-3	-3	6	1	0.000022	0.000010
-4	-3	-3	7	1	0.000000	0.000000
-4	-3	-3	8	1	0.000004	-0.000010
-4	-3	-3	1	2	-0.000216	0.000004
-4	-3	-3	2	2	0.000251	0.000000
-4	-3	-3	3	2	0.000037	0.000042
-4	-3	-3	4	2	0.000001	0.000005
-4	-3	-3	5	2	0.000022	0.000010
-4	-3	-3	6	2	0.000000	0.000000
-4	-3	-3	7	2	-0.000026	0.000015
-4	-3	-3	8	2	-0.000006	-0.000007
-4	-3	-3	1	3	-0.000119	0.000000
-4	-3	-3	2	3	0.000037	-0.000042
-4	-3	-3	3	3	0.000189	0.000000
-4	-3	-3	4	3	0.000037	0.000026
-4	-3	-3	5	3	0.000000	0.000000
-4	-3	-3	6	3	0.000026	-0.000015
-4	-3	-3	7	3	0.000000	0.000000
-4	-3	-3	8	3	-0.000042	0.000014
-4	-3	-3	1	4	-0.000217	0.000022
-4	-3	-3	2	4	0.000001	-0.000005
-4	-3	-3	3	4	0.000037	-0.000026
-4	-3	-3	4	4	0.000247	0.000000
-4	-3	-3	5	4	0.000004	-0.000010
-4	-3	-3	6	4	0.000006	0.000007
-4	-3	-3	7	4	0.000042	-0.000014
-4	-3	-3	8	4	0.000000	0.000000
-4	-3	-3	1	5	0.000000	0.000000
-4	-3	-3	2	5	-0.000022	0.000010
-4	-3	-3	3	5	0.000000	0.000000
-4	-3	-3	4	5	-0.000004	-0.000010
-4	-3	-3	5	5	-0.000719	0.000000
-4	-3	-3	6	5	0.000216	-0.000004
-4	-3	-3	7	5	0.000119	0.000000
-4	-3	-3	8	5	0.000217	-0.000022
-4	-3	-3	1	6	-0.000022	0.000010
-4	-3	-3	2	6	0.000000	0.000000
-4	-3	-3	3	6	0.000026	0.000015
-4	-3	-3	4	6	0.000006	-0.000007
-4	-3	-3	5	6	-0.000216	-0.000004
-4	-3	-3	6	6	0.000251	0.000000
-4	-3	-3	7	6	0.000037	-0.000042
-4	-3	-3	8	6	0.000001	-0.000005
-4	-3	-3	1	7	0.000000	0.000000
-4	-3	-3	2	7	-0.000026	-0.000015
-4	-3	-3	3	7	0.000000	0.000000
-4	-3	-3	4	7	0.000042	0.000014
-4	-3	-3	5	7	-0.000119	0.000000
-4	-3	-3	6	7	0.000037	0.000042
-4	-3	-3	7	7	0.000189	0.000000
-4	-3	-3	8	7	0.000037	-0.000026
-4	-3	-3	1	8	-0.000004	-0.000010
-4	-3	-3	2	8	-0.000006	0.000007
-4	-3	-3	3	8	-0.000042	-0.000014
-4	-3	-3	4	8	0.000000	0.000000
-4	-3	-3	5	8	-0.000217	-0.000022
-4	-3	-3	6	8	0.000001	0.000005
-4	-3	-3	7	8	0.000037	0.000026
-4	-3	-3	8	8	0.000247	0.000000
-4	-3	-2	1	1	-0.000737	0.000000
-4	-3	-2	2	1	0.000606	0.000008
-4	-3	-2	3	1	0.000064	0.000047
-4	-3	-2	4	1	0.000175	-0.000011
-4	-3	-2	5	1	0.000000	0.000000
-4	-3	-2	6	1	0.000016	-0.000014
-4	-3	-2	7	1	-0.000032	0.000005
-4	-3	-2	8	1	0.000015	-0.000053
-4	-3	-2	1	2	-0.000606	0.000008
-4	-3	-2	2	2	0.000176	0.000000
-4	-3	-2	3	2	0.000097	0.000024
-4	-3	-2	4	2	0.000289	-0.000001
-4	-3	-2	5	2	0.000016	-0.000014
-4	-3	-2	6	2	0.000000	0.000000
-4	-3	-2	7	2	-0.000020	0.000003
-4	-3	-2	8	2	-0.000010	-0.000012
-4	-3	-2	1	3	-0.000064	0.000047
-4	-3	-2	2	3	0.000097	-0.000024
-4	-3	-2	3	3	0.000336	0.000000
-4	-3	-2	4	3	-0.000078	0.000028
-4	-3	-2	5	3	-0.000032	0.000005
-4	-3	-2	6	3	0.000020	-0.000003
-4	-3	-2	7	3	0.000000	0.000000
-4	-3	-2	8	3	-0.000057	0.000002
-4	-3	-2	1	4	-0.000175	-0.000011
-4	-3	-2	2	4	0.000289	0.000001
-4	-3	-2	3	4	-0.000078	-0.000028
-4	-3	-2	4	4	0.000226	0.000000
-4	-3	-2	5	4	0.000015	-0.000053
-4	-3	-2	6	4	0.000010	0.000012
-4	-3	-2	7	4	0.000057	-0.000002
-4	-3	-2	8	4	0.000000	0.000000
-4	-3	-2	1	5	0.000000	0.000000
-4	-3	-2	2	5	-0.000016	-0.000014
-4	-3	-2	3	5	0.000032	0.000005
-4	-3	-2	4	5	-0.000015	-0.000053
-4	-3	-2	5	5	-0.000737	0.000000
-4	-3	-2	6	5	0.000606	-0.000008
-4	-3	-2	7	5	0.000064	-0.000047
-4	-3	-2	8	5	0.000175	0.000011
-4	-3	-2	1	6	-0.000016	-0.000014
-4	-3	-2	2	6	0.000000	0.000000
-4	-3	-2	3	6	0.000020	0.000003
-4	-3	-2	4	6	0.000010	-0.000012
-4	-3	-2	5	6	-0.000606	-0.000008
-4	-3	-2	6	6	0.000176	0.000000
-4	-3	-2	7	6	0.000097	-0.000024
-4	-3	-2	8	6	0.000289	0.000001
-4	-3	-2	1	7	0.000032	0.000005
-4	-3	-2	2	7	-0.000020	-0.000003
-4	-3	-2	3	7	0.000000	0.000000
-4	-3	-2	4	7	0.000057	0.000002
-4	-3	-2	5	7	-0.000064	-0.000047
-4	-3	-2	6	7	0.000097	0.000024
-4	-3	-2	7	7	0.000336	0.000000
-4	-3	-2	8	7	-0.000078	-0.000028
-4	-3	-2	1	8	-0.000015	-0.000053
-4	-3	-2	2	8	-0.000010	0.000012
-4	-3	-2	3	8	-0.000057	-0.000002
-4	-3	-2	4	8	0.000000	0.000000
-4	-3	-2	5	8	-0.000175	0.000011
-4	-3	-2	6	8	0.000289	-0.000001
-4	-3	-2	7	8	-0.000078	0.000028
-4	-3	-2	8	8	0.000226	0.000000
-4	-3	-1	1	1	-0.001866	0.000000
-4	-3	-1	2	1	0.000924	-0.000001
-4	-3	-1	3	1	0.000517	-0.000022
-4	-3	-1	4	1	0.000991	0.000018
-4	-3	-1	5	1	0.000000	0.000000
-4	-3	-1	6	1	0.000019	0.000008
-4	-3	-1	7	1	-0.000040	0.000020
-4	-3	-1	8	1	0.000020	-0.000059
-4	-3	-1	1	2	-0.000924	-0.000001
-4	-3	-1	2	2	-0.000302	0.000000
-4	-3	-1	3	2	0.000184	-0.000006
-4	-3	-1	4	2	0.000562	-0.000010
-4	-3	-1	5	2	0.000019	0.000008
-4	-3	-1	6	2	0.000000	0.000000
-4	-3	-1	7	2	-0.000009	-0.000028
-4	-3	-1	8	2	-0.000038	0.000005
-4	-3	-1	1	3	-0.000517	-0.000022
-4	-3	-1	2	3	0.000184	0.000006
-4	-3	-1	3	3	0.001088	0.000000
-4	-3	-1	4	3	0.000311	0.000034
-4	-3	-1	5	3	-0.000040	0.000020
-4	-3	-1	6	3	0.000009	0.000028
-4	-3	-1	7	3	0.000000	0.000000
-4	-3	-1	8	3	-0.000034	0.000027
-4	-3	-1	1	4	-0.000991	0.000018
-4	-3	-1	2	4	0.000562	0.000010
-4	-3	-1	3	4	0.000311	-0.000034
-4	-3	-1	4	4	0.000991	0.000000
-4	-3	-1	5	4	0.000020	-0.000059
-4	-3	-1	6	4	0.000038	-0.000005
-4	-3	-1	7	4	0.000034	-0.000027
-4	-3	-1	8	4	0.000000	0.000000
-4	-3	-1	1	5	0.000000	0.000000
-4	-3	-1	2	5	-0.000019	0.000008
-4	-3	-1	3	5	0.000040	0.000020
-4	-3	-1	4	5	-0.000020	-0.000059
-4	-3	-1	5	5	-0.001866	0.000000
-4	-3	-1	6	5	0.000924	0.000001
-4	-3	-1	7	5	0.000517	0.000022
-4	-3	-1	8	5	0.000991	-0.000018
-4	-3	-1	1	6	-0.000019	0.000008
-4	-3	-1	2	6	0.000000	0.000000
-4	-3	-1	3	6	0.000009	-0.000028
-4	-3	-1	4	6	0.000038	0.000005
-4	-3	-1	5	6	-0.000924	0.000001
-4	-3	-1	6	6	-0.000302	0.000000
-4	-3	-1	7	6	0.000184	0.000006
-4	-3	-1	8	6	0.000562	0.000010
-4	-3	-1	1	7	0.000040	0.000020
-4	-3	-1	2	7	-0.000009	0.000028
-4	-3	-1	3	7	0.000000	0.000000
-4	-3	-1	4	7	0.000034	0.000027
-4	-3	-1	5	7	-0.000517	0.000022
-4	-3	-1	6	7	0.000184	-0.000006
-4	-3	-1	7	7	0.001088	0.000000
-4	-3	-1	8	7	0.000311	-0.000034
-4	-3	-1	1	8	-0.000020	-0.000059
-4	-3	-1	2	8	-0.000038	-0.000005
-4	-3	-1	3	8	-0.000034	-0.000027
-4	-3	-1	4	8	0.000000	0.000000
-4	-3	-1	5	8	-0.000991	-0.000018
-4	-3	-1	6	8	0.000562	-0.000010
-4	-3	-1	7	8	0.000311	0.000034
-4	-3	-1	8	8	0.000991	0.000000
-4	-3	0	1	1	-0.003692	0.000000
-4	-3	0	2	1	0.000026	0.000004
-4	-3	0	3	1	0.001072	-0.000106
-4	-3	0	4	1	0.002189	0.000057
-4	-3	0	5	1	0.000000	0.000000
-4	-3	0	6	1	0.000015	0.000035
-4	-3	0	7	1	0.000006	-0.000004
-4	-3	0	8	1	0.000000	0.000001
-4	-3	0	1	2	-0.000026	0.000004
-4	-3	0	2	2	-0.000649	0.000000
-4	-3	0	3	2	-0.000007	0.000011
-4	-3	0	4	2	0.000016	0.000003
-4	-3	0	5	2	0.000015	0.000035
-4	-3	0	6	2	0.000000	0.000000
-4	-3	0	7	2	-0.000028	-0.000068
-4	-3	0	8	2	-0.000042	-0.000004
-4	-3	0	1	3	-0.001072	-0.000106
-4	-3	0	2	3	-0.000007	-0.000011
-4	-3	0	3	3	0.003016	0.000000
-4	-3	0	4	3	0.000861	0.000149
-4	-3	0	5	3	0.000006	-0.000004
-4	-3	0	6	3	0.000028	0.000068
-4	-3	0	7	3	0.000000	0.000000
-4	-3	0	8	3	-0.000004	-0.000001
-4	-3	0	1	4	-0.002189	0.000057
-4	-3	0	2	4	0.000016	-0.000003
-4	-3	0	3	4	0.000861	-0.000149
-4	-3	0	4	4	0.002002	0.000000
-4	-3	0	5	4	0.000000	0.000001
-4	-3	0	6	4	0.000042	0.000004
-4	-3	0	7	4	0.000004	0.000001
-4	-3	0	8	4	0.000000	0.000000
-4	-3	0	1	5	0.000000	0.000000
-4	-3	0	2	5	-0.000015	0.000035
-4	-3	0	3	5	-0.000006	-0.000004
-4	-3	0	4	5	0.000000	0.000001
-4	-3	0	5	5	-0.003692	0.000000
-4	-3	0	6	5	0.000026	-0.000004
-4	-3	0	7	5	0.001072	0.000106
-4	-3	0	8	5	0.002189	-0.000057
-4	-3	0	1	6	-0.000015	0.000035
-4	-3	0	2	6	0.000000	0.000000
-4	-3	0	3	6	0.000028	-0.000068
-4	-3	0	4	6	0.000042	-0.000004
-4	-3	0	5	6	-0.000026	-0.000004
-4	-3	0	6	6	-0.000649	0.000000
-4	-3	0	7	6	-0.000007	-0.000011
-4	-3	0	8	6	0.000016	-0.000003
-4	-3	0	1	7	-0.000006	-0.000004
-4	-3	0	2	7	-0.000028	0.000068
-4	-3	0	3	7	0.000000	0.000000
-4	-3	0	4	7	0.000004	-0.000001
-4	-3	0	5	7	-0.001072	0.000106
-4	-3	0	6	7	-0.000007	0.000011
-4	-3	0	7	7	0.003016	0.000000
-4	-3	0	8	7	0.000861	-0.000149
-4	-3	0	1	8	0.000000	0.000001
-4	-3	0	2	8	-0.000042	0.000004
-4	-3	0	3	8	-0.000004	0.000001
-4	-3	0	4	8	0.000000	0.000000
-4	-3	0	5	8	-0.002189	-0.000057
-4	-3	0	6	8	0.000016	0.000003
-4	-3	0	7	8	0.000861	0.000149
-4	-3	0	8	8	0.002002	0.000000
-4	-3	1	1	1	-0.001851	0.000000
-4	-3	1	2	1	-0.000903	0.000005
-4	-3	1	3	1	0.000503	-0.000024
-4	-3	1	4	1	0.000971	0.000012
-4	-3	1	5	1	0.000000	0.000000
-4	-3	1	6	1	0.000005	0.000011
-4	-3	1	7	1	0.000044	-0.000021
-4	-3	1	8	1	-0.000016	0.000051
-4	-3	1	1	2	0.000903	0.000005
-4	-3	1	2	2	-0.000333	0.000000
-4	-3	1	3	2	-0.000248	0.000015
-4	-3	1	4	2	-0.000577	0.000016
-4	-3	1	5	2	0.000005	0.000011
-4	-3	1	6	2	0.000000	0.000000
-4	-3	1	7	2	-0.000009	-0.000038
-4	-3	1	8	2	-0.000043	0.000006
-4	-3	1	1	3	-0.000503	-0.000024
-4	-3	1	2	3	-0.000248	-0.000015
-4	-3	1	3	3	0.001056	0.000000
-4	-3	1	4	3	0.000404	0.000018
-4	-3	1	5	3	0.000044	-0.000021
-4	-3	1	6	3	0.000009	0.000038
-4	-3	1	7	3	0.000000	0.000000
-4	-3	1	8	3	0.000033	-0.000011
-4	-3	1	1	4	-0.000971	0.000012
-4	-3	1	2	4	-0.000577	-0.000016
-4	-3	1	3	4	0.000404	-0.000018
-4	-3	1	4	4	0.000909	0.000000
-4	-3	1	5	4	-0.000016	0.000051
-4	-3	1	6	4	0.000043	-0.000006
-4	-3	1	7	4	-0.000033	0.000011
-4	-3	1	8	4	0.000000	0.000000
-4	-3	1	1	5	0.000000	0.000000
-4	-3	1	2	5	-0.000005	0.000011
-4	-3	1	3	5	-0.000044	-0.000021
-4	-3	1	4	5	0.000016	0.000051
-4	-3	1	5	5	-0.001851	0.000000
-4	-3	1	6	5	-0.000903	-0.000005
-4	-3	1	7	5	0.000503	0.000024
-4	-3	1	8	5	0.000971	-0.000012
-4	-3	1	1	6	-0.000005	0.000011
-4	-3	1	2	6	0.000000	0.000000
-4	-3	1	3	6	0.000009	-0.000038
-4	-3	1	4	6	0.000043	0.000006
-4	-3	1	5	6	0.000903	-0.000005
-4	-3	1	6	6	-0.000333	0.000000
-4	-3	1	7	6	-0.000248	-0.000015
-4	-3	1	8	6	-0.000577	-0.000016
-4	-3	1	1	7	-0.000044	-0.000021
-4	-3	1	2	7	-0.000009	0.000038
-4	-3	1	3	7	0.000000	0.000000
-4	-3	1	4	7	-0.000033	-0.000011
-4	-3	1	5	7	-0.000503	0.000024
-4	-3	1	6	7	-0.000248	0.000015
-4	-3	1	7	7	0.001056	0.000000
-4	-3	1	8	7	0.000404	-0.000018
-4	-3	1	1	8	0.000016	0.000051
-4	-3	1	2	8	-0.000043	-0.000006
-4	-3	1	3	8	0.000033	0.000011
-4	-3	1	4	8	0.000000	0.000000
-4	-3	1	5	8	-0.000971	-0.000012
-4	-3	1	6	8	-0.000577	0.000016
-4	-3	1	7	8	0.000404	0.000018
-4	-3	1	8	8	0.000909	0.000000
-4	-3	2	1	1	-0.000743	0.000000
-4	-3	2	2	1	-0.000578	-0.000002
-4	-3	2	3	1	0.000083	0.000051
-4	-3	2	4	1	0.000202	-0.000024
-4	-3	2	5	1	0.000000	0.000000
-4	-3	2	6	1	0.000003	-0.000002
-4	-3	2	7	1	0.000036	-0.000007
-4	-3	2	8	1	-0.000014	0.000049
-4	-3	2	1	2	0.000578	-0.000002
-4	-3	2	2	2	0.000137	0.000000
-4	-3	2	3	2	-0.000108	-0.000022
-4	-3	2	4	2	-0.000327	0.000001
-4	-3	2	5	2	0.000003	-0.000002
-4	-3	2	6	2	0.000000	0.000000
-4	-3	2	7	2	-0.000013	-0.000002
-4	-3	2	8	2	-0.000006	-0.000007
-4	-3	2	1	3	-0.000083	0.000051
-4	-3	2	2	3	-0.000108	0.000022
-4	-3	2	3	3	0.000312	0.000000
-4	-3	2	4	3	-0.000121	0.000039
-4	-3	2	5	3	0.000036	-0.000007
-4	-3	2	6	3	0.000013	0.000002
-4	-3	2	7	3	0.000000	0.000000
-4	-3	2	8	3	0.000048	-0.000008
-4	-3	2	1	4	-0.000202	-0.000024
-4	-3	2	2	4	-0.000327	-0.000001
-4	-3	2	3	4	-0.000121	-0.000039
-4	-3	2	4	4	0.000276	0.000000
-4	-3	2	5	4	-0.000014	0.000049
-4	-3	2	6	4	0.000006	0.000007
-4	-3	2	7	4	-0.000048	0.000008
-4	-3	2	8	4	0.000000	0.000000
-4	-3	2	1	5	0.000000	0.000000
-4	-3	2	2	5	-0.000003	-0.000002
-4	-3	2	3	5	-0.000036	-0.000007
-4	-3	2	4	5	0.000014	0.000049
-4	-3	2	5	5	-0.000743	0.000000
-4	-3	2	6	5	-0.000578	0.000002
-4	-3	2	7	5	0.000083	-0.000051
-4	-3	2	8	5	0.000202	0.000024
-4	-3	2	1	6	-0.000003	-0.000002
-4	-3	2	2	6	0.000000	0.000000
-4	-3	2	3	6	0.000013	-0.000002
-4	-3	2	4	6	0.000006	-0.000007
-4	-3	2	5	6	0.000578	0.000002
-4	-3	2	6	6	0.000137	0.000000
-4	-3	2	7	6	-0.000108	0.000022
-4	-3	2	8	6	-0.000327	-0.000001
-4	-3	2	1	7	-0.000036	-0.000007
-4	-3	2	2	7	-0.000013	0.000002
-4	-3	2	3	7	0.000000	0.000000
-4	-3	2	4	7	-0.000048	-0.000008
-4	-3	2	5	7	-0.000083	-0.000051
-4	-3	2	6	7	-0.000108	-0.000022
-4	-3	2	7	7	0.000312	0.000000
-4	-3	2	8	7	-0.000121	-0.000039
-4	-3	2	1	8	0.000014	0.000049
-4	-3	2	2	8	-0.000006	0.000007
-4	-3	2	3	8	0.000048	0.000008
-4	-3	2	4	8	0.000000	0.000000
-4	-3	2	5	8	-0.000202	0.000024
-4	-3	2	6	8	-0.000327	0.000001
-4	-3	2	7	8	-0.000121	0.000039
-4	-3	2	8	8	0.000276	0.000000
-4	-3	3	1	1	-0.000732	0.000000
-4	-3	3	2	1	-0.000235	-0.000004
-4	-3	3	3	1	0.000118	0.000003
-4	-3	3	4	1	0.000248	0.000015
-4	-3	3	5	1	0.000000	0.000000
-4	-3	3	6	1	0.000008	0.000022
-4	-3	3	7	1	-0.000006	-0.000003
-4	-3	3	8	1	-0.000005	0.000017
-4	-3	3	1	2	0.000235	-0.000004
-4	-3	3	2	2	0.000231	0.000000
-4	-3	3	3	2	-0.000030	-0.000054
-4	-3	3	4	2	-0.000032	-0.000004
-4	-3	3	5	2	0.000008	0.000022
-4	-3	3	6	2	0.000000	0.000000
-4	-3	3	7	2	-0.000020	0.000013
-4	-3	3	8	2	-0.000002	-0.000014
-4	-3	3	1	3	-0.000118	0.000003
-4	-3	3	2	3	-0.000030	0.000054
-4	-3	3	3	3	0.000205	0.000000
-4	-3	3	4	3	0.000041	0.000024
-4	-3	3	5	3	-0.000006	-0.000003
-4	-3	3	6	3	0.000020	-0.000013
-4	-3	3	7	3	0.000000	0.000000
-4	-3	3	8	3	0.000051	-0.000013
-4	-3	3	1	4	-0.000248	0.000015
-4	-3	3	2	4	-0.000032	0.000004
-4	-3	3	3	4	0.000041	-0.000024
-4	-3	3	4	4	0.000254	0.000000
-4	-3	3	5	4	-0.000005	0.000017
-4	-3	3	6	4	0.000002	0.000014
-4	-3	3	7	4	-0.000051	0.000013
-4	-3	3	8	4	0.000000	0.000000
-4	-3	3	1	5	0.000000	0.000000
-4	-3	3	2	5	-0.000008	0.000022
-4	-3	3	3	5	0.000006	-0.000003
-4	-3	3	4	5	0.000005	0.000017
-4	-3	3	5	5	-0.000732	0.000000
-4	-3	3	6	5	-0.000235	0.000004
-4	-3	3	7	5	0.000118	-0.000003
-4	-3	3	8	5	0.000248	-0.000015
-4	-3	3	1	6	-0.000008	0.000022
-4	-3	3	2	6	0.000000	0.000000
-4	-3	3	3	6	0.000020	0.000013
-4	-3	3	4	6	0.000002	-0.000014
-4	-3	3	5	6	0.000235	0.000004
-4	-3	3	6	6	0.000231	0.000000
-4	-3	3	7	6	-0.000030	0.000054
-4	-3	3	8	6	-0.000032	0.000004
-4	-3	3	1	7	0.000006	-0.000003
-4	-3	3	2	7	-0.000020	-0.000013
-4	-3	3	3	7	0.000000	0.000000
-4	-3	3	4	7	-0.000051	-0.000013
-4	-3	3	5	7	-0.000118	-0.000003
-4	-3	3	6	7	-0.000030	-0.000054
-4	-3	3	7	7	0.000205	0.000000
-4	-3	3	8	7	0.000041	-0.000024
-4	-3	3	1	8	0.000005	0.000017
-4	-3	3	2	8	-0.000002	0.000014
-4	-3	3	3	8	0.000051	0.000013
-4	-3	3	4	8	0.000000	0.000000
-4	-3	3	5	8	-0.000248	-0.000015
-4	-3	3	6	8	-0.000032	-0.000004
-4	-3	3	7	8	0.000041	0.000024
-4	-3	3	8	8	0.000254	0.000000
-4	-3	4	1	1	-0.000665	0.000000
-4	-3	4	2	1	-0.000049	0.000002
-4	-3	4	3	1	0.000052	-0.000049
-4	-3	4	4	1	0.000369	0.000007
-4	-3	4	5	1	0.000000	0.000000
-4	-3	4	6	1	-0.000004	0.000051
-4	-3	4	7	1	-0.000011	0.000000
-4	-3	4	8	1	0.000001	0.000003
-4	-3	4	1	2	0.000049	0.000002
-4	-3	4	2	2	0.000223	0.000000
-4	-3	4	3	2	0.000087	-0.000019
-4	-3	4	4	2	0.000010	0.000004
-4	-3	4	5	2	-0.000004	0.000051
-4	-3	4	6	2	0.000000	0.000000
-4	-3	4	7	2	-0.000046	0.000013
-4	-3	4	8	2	0.000008	-0.000011
-4	-3	4	1	3	-0.000052	-0.000049
-4	-3	4	2	3	0.000087	0.000019
-4	-3	4	3	3	0.000182	0.000000
-4	-3	4	4	3	-0.000004	0.000000
-4	-3	4	5	3	-0.000011	0.000000
-4	-3	4	6	3	0.000046	-0.000013
-4	-3	4	7	3	0.000000	0.000000
-4	-3	4	8	3	0.000010	-0.000010
-4	-3	4	1	4	-0.000369	0.000007
-4	-3	4	2	4	0.000010	-0.000004
-4	-3	4	3	4	-0.000004	0.000000
-4	-3	4	4	4	0.000205	0.000000
-4	-3	4	5	4	0.000001	0.000003
-4	-3	4	6	4	-0.000008	0.000011
-4	-3	4	7	4	-0.000010	0.000010
-4	-3	4	8	4	0.000000	0.000000
-4	-3	4	1	5	0.000000	0.000000
-4	-3	4	2	5	0.000004	0.000051
-4	-3	4	3	5	0.000011	0.000000
-4	-3	4	4	5	-0.000001	0.000003
-4	-3	4	5	5	-0.000665	0.000000
-4	-3	4	6	5	-0.000049	-0.000002
-4	-3	4	7	5	0.000052	0.000049
-4	-3	4	8	5	0.000369	-0.000007
-4	-3	4	1	6	0.000004	0.000051
-4	-3	4	2	6	0.000000	0.000000
-4	-3	4	3	6	0.000046	0.000013
-4	-3	4	4	6	-0.000008	-0.000011
-4	-3	4	5	6	0.000049	-0.000002
-4	-3	4	6	6	0.000223	0.000000
-4	-3	4	7	6	0.000087	0.000019
-4	-3	4	8	6	0.000010	-0.000004
-4	-3	4	1	7	0.000011	0.000000
-4	-3	4	2	7	-0.000046	-0.000013
-4	-3	4	3	7	0.000000	0.000000
-4	-3	4	4	7	-0.000010	-0.000010
-4	-3	4	5	7	-0.000052	0.000049
-4	-3	4	6	7	0.000087	-0.000019
-4	-3	4	7	7	0.000182	0.000000
-4	-3	4	8	7	-0.000004	0.000000
-4	-3	4	1	8	-0.000001	0.000003
-4	-3	4	2	8	0.000008	0.000011
-4	-3	4	3	8	0.000010	0.000010
-4	-3	4	4	8	0.000000	0.000000
-4	-3	4	5	8	-0.000369	-0.000007
-4	-3	4	6	8	0.000010	0.000004
-4	-3	4	7	8	-0.000004	0.000000
-4	-3	4	8	8	0.000205	0.000000
-4	-2	-4	1	1	-0.000627	0.000000
-4	-2	-4	2	1	0.000016	0.000012
-4	-2	-4	3	1	0.000039	-0.000102
-4	-2	-4	4	1	0.000686	-0.000005
-4	-2	-4	5	1	0.000000	0.000000
-4	-2	-4	6	1	-0.000005	0.000102
-4	-2	-4	7	1	0.000007	-0.000012
-4	-2	-4	8	1	0.000000	0.000007
-4	-2	-4	1	2	-0.000016	0.000012
-4	-2	-4	2	2	0.000271	0.000000
-4	-2	-4	3	2	-0.000019	0.000025
-4	-2	-4	4	2	0.000055	0.000008
-4	-2	-4	5	2	-0.000005	0.000102
-4	-2	-4	6	2	0.000000	0.000000
-4	-2	-4	7	2	-0.000058	0.000026
-4	-2	-4	8	2	0.000004	-0.000023
-4	-2	-4	1	3	-0.000039	-0.000102
-4	-2	-4	2	3	-0.000019	-0.000025
-4	-2	-4	3	3	0.000270	0.000000
-4	-2	-4	4	3	0.000062	0.000023
-4	-2	-4	5	3	0.000007	-0.000012
-4	-2	-4	6	3	0.000058	-0.000026
-4	-2	-4	7	3	0.000000	0.000000
-4	-2	-4	8	3	-0.000005	-0.000007
-4	-2	-4	1	4	-0.000686	-0.000005
-4	-2	-4	2	4	0.000055	-0.000008
-4	-2	-4	3	4	0.000062	-0.000023
-4	-2	-4	4	4	0.000098	0.000000
-4	-2	-4	5	4	0.000000	0.000007
-4	-2	-4	6	4	-0.000004	0.000023
-4	-2	-4	7	4	0.000005	0.000007
-4	-2	-4	8	4	0.000000	0.000000
-4	-2	-4	1	5	0.000000	0.000000
-4	-2	-4	2	5	0.000005	0.000102
-4	-2	-4	3	5	-0.000007	-0.000012
-4	-2	-4	4	5	0.000000	0.000007
-4	-2	-4	5	5	-0.000627	0.000000
-4	-2	-4	6	5	0.000016	-0.000012
-4	-2	-4	7	5	0.000039	0.000102
-4	-2	-4	8	5	0.000686	0.000005
-4	-2	-4	1	6	0.000005	0.000102
-4	-2	-4	2	6	0.000000	0.000000
-4	-2	-4	3	6	0.000058	0.000026
-4	-2	-4	4	6	-0.000004	-0.000023
-4	-2	-4	5	6	-0.000016	-0.000012
-4	-2	-4	6	6	0.000271	0.000000
-4	-2	-4	7	6	-0.000019	-0.000025
-4	-2	-4	8	6	0.000055	-0.000008
-4	-2	-4	1	7	-0.000007	-0.000012
-4	-2	-4	2	7	-0.000058	-0.000026
-4	-2	-4	3	7	0.000000	0.000000
-4	-2	-4	4	7	0.000005	-0.000007
-4	-2	-4	5	7	-0.000039	0.000102
-4	-2	-4	6	7	-0.000019	0.000025
-4	-2	-4	7	7	0.000270	0.000000
-4	-2	-4	8	7	0.000062	-0.000023
-4	-2	-4	1	8	0.000000	0.000007
-4	-2	-4	2	8	0.000004	0.000023
-4	-2	-4	3	8	-0.000005	0.000007
-4	-2	-4	4	8	0.000000	0.000000
-4	-2	-4	5	8	-0.000686	0.000005
-4	-2	-4	6	8	0.000055	0.000008
-4	-2	-4	7	8	0.000062	0.000023
-4	-2	-4	8	8	0.000098	0.000000
-4	-2	-3	1	1	-0.000734	0.000000
-4	-2	-3	2	1	0.000155	0.000015
-4	-2	-3	3	1	0.000063	-0.000031
-4	-2	-3	4	1	0.000601	0.000016
-4	-2	-3	5	1	0.000000	0.000000
-4	-2	-3	6	1	-0.000011	0.000053
-4	-2	-3	7	1	0.000048	-0.000005
-4	-2	-3	8	1	0.000008	0.000015
-4	-2	-3	1	2	-0.000155	0.000015
-4	-2	-3	2	2	0.000227	0.000000
-4	-2	-3	3	2	-0.000086	0.000057
-4	-2	-3	4	2	0.000284	0.000010
-4	-2	-3	5	2	-0.000011	0.000053
-4	-2	-3	6	2	0.000000	0.000000
-4	-2	-3	7	2	-0.000029	0.000002
-4	-2	-3	8	2	0.000001	-0.000012
-4	-2	-3	1	3	-0.000063	-0.000031
-4	-2	-3	2	3	-0.000086	-0.000057
-4	-2	-3	3	3	0.000333	0.000000
-4	-2	-3	4	3	0.000095	0.000018
-4	-2	-3	5	3	0.000048	-0.000005
-4	-2	-3	6	3	0.000029	-0.000002
-4	-2	-3	7	3	0.000000	0.000000
-4	-2	-3	8	3	-0.000024	0.000003
-4	-2	-3	1	4	-0.000601	0.000016
-4	-2	-3	2	4	0.000284	-0.000010
-4	-2	-3	3	4	0.000095	-0.000018
-4	-2	-3	4	4	0.000174	0.000000
-4	-2	-3	5	4	0.000008	0.000015
-4	-2	-3	6	4	-0.000001	0.000012
-4	-2	-3	7	4	0.000024	-0.000003
-4	-2	-3	8	4	0.000000	0.000000
-4	-2	-3	1	5	0.000000	0.000000
-4	-2	-3	2	5	0.000011	0.000053
-4	-2	-3	3	5	-0.000048	-0.000005
-4	-2	-3	4	5	-0.000008	0.000015
-4	-2	-3	5	5	-0.000734	0.000000
-4	-2	-3	6	5	0.000155	-0.000015
-4	-2	-3	7	5	0.000063	0.000031
-4	-2	-3	8	5	0.000601	-0.000016
-4	-2	-3	1	6	0.000011	0.000053
-4	-2	-3	2	6	0.000000	0.000000
-4	-2	-3	3	6	0.000029	0.000002
-4	-2	-3	4	6	-0.000001	-0.000012
-4	-2	-3	5	6	-0.000155	-0.000015
-4	-2	-3	6	6	0.000227	0.000000
-4	-2	-3	7	6	-0.000086	-0.000057
-4	-2	-3	8	6	0.000284	-0.000010
-4	-2	-3	1	7	-0.000048	-0.000005
-4	-2	-3	2	7	-0.000029	-0.000002
-4	-2	-3	3	7	0.000000	0.000000
-4	-2	-3	4	7	0.000024	0.000003
-4	-2	-3	5	7	-0.000063	0.000031
-4	-2	-3	6	7	-0.000086	0.000057
-4	-2	-3	7	7	0.000333	0.000000
-4	-2	-3	8	7	0.000095	-0.000018
-4	-2	-3	1	8	-0.000008	0.000015
-4	-2	-3	2	8	0.000001	0.000012
-4	-2	-3	3	8	-0.000024	-0.000003
-4	-2	-3	4	8	0.000000	0.000000
-4	-2	-3	5	8	-0.000601	-0.000016
-4	-2	-3	6	8	0.000284	0.000010
-4	-2	-3	7	8	0.000095	0.000018
-4	-2	-3	8	8	0.000174	0.000000
-4	-2	-2	1	1	-0.000527	0.000000
-4	-2	-2	2	1	0.000555	0.000014
-4	-2	-2	3	1	0.000092	0.000040
-4	-2	-2	4	1	0.000565	0.000014
-4	-2	-2	5	1	0.000000	0.000000
-4	-2	-2	6	1	0.000013	-0.000007
-4	-2	-2	7	1	0.000040	0.000000
-4	-2	-2	8	1	0.000014	0.000006
-4	-2	-2	1	2	-0.000555	0.000014
-4	-2	-2	2	2	0.000162	0.000000
-4	-2	-2	3	2	-0.000024	0.000030
-4	-2	-2	4	2	0.001000	0.000001
-4	-2	-2	5	2	0.000013	-0.000007
-4	-2	-2	6	2	0.000000	0.000000
-4	-2	-2	7	2	0.000005	-0.000005
-4	-2	-2	8	2	0.000000	0.000013
-4	-2	-2	1	3	-0.000092	0.000040
-4	-2	-2	2	3	-0.000024	-0.000030
-4	-2	-2	3	3	0.000516	0.000000
-4	-2	-2	4	3	-0.000019	-0.000006
-4	-2	-2	5	3	0.000040	0.000000
-4	-2	-2	6	3	-0.000005	0.000005
-4	-2	-2	7	3	0.000000	0.000000
-4	-2	-2	8	3	-0.000031	-0.000005
-4	-2	-2	1	4	-0.000565	0.000014
-4	-2	-2	2	4	0.001000	-0.000001
-4	-2	-2	3	4	-0.000019	0.000006
-4	-2	-2	4	4	0.000167	0.000000
-4	-2	-2	5	4	0.000014	0.000006
-4	-2	-2	6	4	0.000000	-0.000013
-4	-2	-2	7	4	0.000031	0.000005
-4	-2	-2	8	4	0.000000	0.000000
-4	-2	-2	1	5	0.000000	0.000000
-4	-2	-2	2	5	-0.000013	-0.000007
-4	-2	-2	3	5	-0.000040	0.000000
-4	-2	-2	4	5	-0.000014	0.000006
-4	-2	-2	5	5	-0.000527	0.000000
-4	-2	-2	6	5	0.000555	-0.000014
-4	-2	-2	7	5	0.000092	-0.000040
-4	-2	-2	8	5	0.000565	-0.000014
-4	-2	-2	1	6	-0.000013	-0.000007
-4	-2	-2	2	6	0.000000	0.000000
-4	-2	-2	3	6	-0.000005	-0.000005
-4	-2	-2	4	6	0.000000	0.000013
-4	-2	-2	5	6	-0.000555	-0.000014
-4	-2	-2	6	6	0.000162	0.000000
-4	-2	-2	7	6	-0.000024	-0.000030
-4	-2	-2	8	6	0.001000	-0.000001
-4	-2	-2	1	7	-0.000040	0.000000
-4	-2	-2	2	7	0.000005	0.000005
-4	-2	-2	3	7	0.000000	0.000000
-4	-2	-2	4	7	0.000031	-0.000005
-4	-2	-2	5	7	-0.000092	-0.000040
-4	-2	-2	6	7	-0.000024	0.000030
-4	-2	-2	7	7	0.000516	0.000000
-4	-2	-2	8	7	-0.000019	0.000006
-4	-2	-2	1	8	-0.000014	0.000006
-4	-2	-2	2	8	0.000000	-0.000013
-4	-2	-2	3	8	-0.000031	0.000005
-4	-2	-2	4	8	0.000000	0.000000
-4	-2	-2	5	8	-0.000565	-0.000014
-4	-2	-2	6	8	0.001000	0.000001
-4	-2	-2	7	8	-0.000019	-0.000006
-4	-2	-2	8	8	0.000167	0.000000
-4	-2	-1	1	1	-0.001452	0.000000
-4	-2	-1	2	1	0.001038	0.000020
-4	-2	-1	3	1	0.000011	-0.000085
-4	-2	-1	4	1	0.002653	-0.000013
-4	-2	-1	5	1	0.000000	0.000000
-4	-2	-1	6	1	0.000021	-0.000018
-4	-2	-1	7	1	-0.000032	0.000009
-4	-2	-1	8	1	0.000014	0.000020
-4	-2	-1	1	2	-0.001038	0.000020
-4	-2	-1	2	2	-0.000307	0.000000
-4	-2	-1	3	2	0.000243	-0.000021
-4	-2	-1	4	2	0.001694	-0.000001
-4	-2	-1	5	2	0.000021	-0.000018
-4	-2	-1	6	2	0.000000	0.000000
-4	-2	-1	7	2	0.000070	-0.000042
-4	-2	-1	8	2	-0.000065	-0.000009
-4	-2	-1	1	3	-0.000011	-0.000085
-4	-2	-1	2	3	0.000243	0.000021
-4	-2	-1	3	3	0.001214	0.000000
-4	-2	-1	4	3	0.001202	-0.000055
-4	-2	-1	5	3	-0.000032	0.000009
-4	-2	-1	6	3	-0.000070	0.000042
-4	-2	-1	7	3	0.000000	0.000000
-4	-2	-1	8	3	0.000012	0.000001
-4	-2	-1	1	4	-0.002653	-0.000013
-4	-2	-1	2	4	0.001694	0.000001
-4	-2	-1	3	4	0.001202	0.000055
-4	-2	-1	4	4	0.000818	0.000000
-4	-2	-1	5	4	0.000014	0.000020
-4	-2	-1	6	4	0.000065	0.000009
-4	-2	-1	7	4	-0.000012	-0.000001
-4	-2	-1	8	4	0.000000	0.000000
-4	-2	-1	1	5	0.000000	0.000000
-4	-2	-1	2	5	-0.000021	-0.000018
-4	-2	-1	3	5	0.000032	0.000009
-4	-2	-1	4	5	-0.000014	0.000020
-4	-2	-1	5	5	-0.001452	0.000000
-4	-2	-1	6	5	0.001038	-0.000020
-4	-2	-1	7	5	0.000011	0.000085
-4	-2	-1	8	5	0.002653	0.000013
-4	-2	-1	1	6	-0.000021	-0.000018
-4	-2	-1	2	6	0.000000	0.000000
-4	-2	-1	3	6	-0.000070	-0.000042
-4	-2	-1	4	6	0.000065	-0.000009
-4	-2	-1	5	6	-0.001038	-0.000020
-4	-2	-1	6	6	-0.000307	0.000000
-4	-2	-1	7	6	0.000243	0.000021
-4	-2	-1	8	6	0.001694	0.000001
-4	-2	-1	1	7	0.000032	0.000009
-4	-2	-1	2	7	0.000070	0.000042
-4	-2	-1	3	7	0.000000	0.000000
-4	-2	-1	4	7	-0.000012	0.000001
-4	-2	-1	5	7	-0.000011	0.000085
-4	-2	-1	6	7	0.000243	-0.000021
-4	-2	-1	7	7	0.001214	0.000000
-4	-2	-1	8	7	0.001202	0.000055
-4	-2	-1	1	8	-0.000014	0.000020
-4	-2	-1	2	8	-0.000065	0.000009
-4	-2	-1	3	8	0.000012	-0.000001
-4	-2	-1	4	8	0.000000	0.000000
-4	-2	-1	5	8	-0.002653	0.000013
-4	-2	-1	6	8	0.001694	-0.000001
-4	-2	-1	7	8	0.001202	-0.000055
-4	-2	-1	8	8	0.000818	0.000000
-4	-2	0	1	1	-0.004619	0.000000
-4	-2	0	2	1	-0.000097	0.000000
-4	-2	0	3	1	0.000963	-0.000269
-4	-2	0	4	1	0.006419	0.000000
-4	-2	0	5	1	0.000000	0.000000
-4	-2	0	6	1	0.000027	-0.000014
-4	-2	0	7	1	0.000002	0.000001
-4	-2	0	8	1	0.000005	0.000001
-4	-2	0	1	2	0.000097	0.000000
-4	-2	0	2	2	-0.000825	0.000000
-4	-2	0	3	2	0.000004	-0.000004
-4	-2	0	4	2	0.000008	0.000000
-4	-2	0	5	2	0.000027	-0.000014
-4	-2	0	6	2	0.000000	0.000000
-4	-2	0	7	2	0.000138	-0.000022
-4	-2	0	8	2	-0.000098	-0.000018
-4	-2	0	1	3	-0.000963	-0.000269
-4	-2	0	2	3	0.000004	0.000004
-4	-2	0	3	3	0.001359	0.000000
-4	-2	0	4	3	0.003201	0.000072
-4	-2	0	5	3	0.000002	0.000001
-4	-2	0	6	3	-0.000138	0.000022
-4	-2	0	7	3	0.000000	0.000000
-4	-2	0	8	3	-0.000008	-0.000002
-4	-2	0	1	4	-0.006419	0.000000
-4	-2	0	2	4	0.000008	0.000000
-4	-2	0	3	4	0.003201	-0.000072
-4	-2	0	4	4	0.001938	0.000000
-4	-2	0	5	4	0.000005	0.000001
-4	-2	0	6	4	0.000098	0.000018
-4	-2	0	7	4	0.000008	0.000002
-4	-2	0	8	4	0.000000	0.000000
-4	-2	0	1	5	0.000000	0.000000
-4	-2	0	2	5	-0.000027	-0.000014
-4	-2	0	3	5	-0.000002	0.000001
-4	-2	0	4	5	-0.000005	0.000001
-4	-2	0	5	5	-0.004619	0.000000
-4	-2	0	6	5	-0.000097	0.000000
-4	-2	0	7	5	0.000963	0.000269
-4	-2	0	8	5	0.006419	0.000000
-4	-2	0	1	6	-0.000027	-0.000014
-4	-2	0	2	6	0.000000	0.000000
-4	-2	0	3	6	-0.000138	-0.000022
-4	-2	0	4	6	0.000098	-0.000018
-4	-2	0	5	6	0.000097	0.000000
-4	-2	0	6	6	-0.000825	0.000000
-4	-2	0	7	6	0.000004	0.000004
-4	-2	0	8	6	0.000008	0.000000
-4	-2	0	1	7	-0.000002	0.000001
-4	-2	0	2	7	0.000138	0.000022
-4	-2	0	3	7	0.000000	0.000000
-4	-2	0	4	7	0.000008	-0.000002
-4	-2	0	5	7	-0.000963	0.000269
-4	-2	0	6	7	0.000004	-0.000004
-4	-2	0	7	7	0.001359	0.000000
-4	-2	0	8	7	0.003201	-0.000072
-4	-2	0	1	8	-0.000005	0.000001
-4	-2	0	2	8	-0.000098	0.000018
-4	-2	0	3	8	-0.000008	0.000002
-4	-2	0	4	8	0.000000	0.000000
-4	-2	0	5	8	-0.006419	0.000000
-4	-2	0	6	8	0.000008	0.000000
-4	-2	0	7	8	0.003201	0.000072
-4	-2	0	8	8	0.001938	0.000000
-4	-2	1	1	1	-0.001430	0.000000
-4	-2	1	2	1	-0.001147	-0.000018
-4	-2	1	3	1	0.000051	-0.000080
-4	-2	1	4	1	0.002688	-0.000023
-4	-2	1	5	1	0.000000	0.000000
-4	-2	1	6	1	0.000016	-0.000014
-4	-2	1	7	1	0.000036	-0.000001
-4	-2	1	8	1	-0.000006	-0.000033
-4	-2	1	1	2	0.001147	-0.000018
-4	-2	1	2	2	-0.000407	0.000000
-4	-2	1	3	2	-0.000270	0.000018
-4	-2	1	4	2	-0.001702	0.000007
-4	-2	1	5	2	0.000016	-0.000014
-4	-2	1	6	2	0.000000	0.000000
-4	-2	1	7	2	0.000078	-0.000035
-4	-2	1	8	2	-0.000065	0.000006
-4	-2	1	1	3	-0.000051	-0.000080
-4	-2	1	2	3	-0.000270	-0.000018
-4	-2	1	3	3	0.001189	0.000000
-4	-2	1	4	3	0.001372	-0.000068
-4	-2	1	5	3	0.000036	-0.000001
-4	-2	1	6	3	-0.000078	0.000035
-4	-2	1	7	3	0.000000	0.000000
-4	-2	1	8	3	-0.000002	0.000004
-4	-2	1	1	4	-0.002688	-0.000023
-4	-2	1	2	4	-0.001702	-0.000007
-4	-2	1	3	4	0.001372	0.000068
-4	-2	1	4	4	0.000713	0.000000
-4	-2	1	5	4	-0.000006	-0.000033
-4	-2	1	6	4	0.000065	-0.000006
-4	-2	1	7	4	0.000002	-0.000004
-4	-2	1	8	4	0.000000	0.000000
-4	-2	1	1	5	0.000000	0.000000
-4	-2	1	2	5	-0.000016	-0.000014
-4	-2	1	3	5	-0.000036	-0.000001
-4	-2	1	4	5	0.000006	-0.000033
-4	-2	1	5	5	-0.001430	0.000000
-4	-2	1	6	5	-0.001147	0.000018
-4	-2	1	7	5	0.000051	0.000080
-4	-2	1	8	5	0.002688	0.000023
-4	-2	1	1	6	-0.000016	-0.000014
-4	-2	1	2	6	0.000000	0.000000
-4	-2	1	3	6	-0.000078	-0.000035
-4	-2	1	4	6	0.000065	0.000006
-4	-2	1	5	6	0.001147	0.000018
-4	-2	1	6	6	-0.000407	0.000000
-4	-2	1	7	6	-0.000270	-0.000018
-4	-2	1	8	6	-0.001702	-0.000007
-4	-2	1	1	7	-0.000036	-0.000001
-4	-2	1	2	7	0.000078	0.000035
-4	-2	1	3	7	0.000000	0.000000
-4	-2	1	4	7	0.000002	0.000004
-4	-2	1	5	7	-0.000051	0.000080
-4	-2	1	6	7	-0.000270	0.000018
-4	-2	1	7	7	0.001189	0.000000
-4	-2	1	8	7	0.001372	0.000068
-4	-2	1	1	8	0.000006	-0.000033
-4	-2	1	2	8	-0.000065	-0.000006
-4	-2	1	3	8	-0.000002	-0.000004
-4	-2	1	4	8	0.000000	0.000000
-4	-2	1	5	8	-0.002688	0.000023
-4	-2	1	6	8	-0.001702	0.000007
-4	-2	1	7	8	0.001372	-0.000068
-4	-2	1	8	8	0.000713	0.000000
-4	-2	2	1	1	-0.000520	0.000000
-4	-2	2	2	1	-0.000575	-0.000015
-4	-2	2	3	1	-0.000002	0.000038
-4	-2	2	4	1	0.000604	-0.000001
-4	-2	2	5	1	0.000000	0.000000
-4	-2	2	6	1	-0.000002	0.000004
-4	-2	2	7	1	-0.000031	-0.000002
-4	-2	2	8	1	-0.000014	-0.000013
-4	-2	2	1	2	0.000575	-0.000015
-4	-2	2	2	2	0.000141	0.000000
-4	-2	2	3	2	-0.000026	-0.000028
-4	-2	2	4	2	-0.000998	-0.000002
-4	-2	2	5	2	-0.000002	0.000004
-4	-2	2	6	2	0.000000	0.000000
-4	-2	2	7	2	-0.000002	-0.000007
-4	-2	2	8	2	-0.000004	0.000007
-4	-2	2	1	3	0.000002	0.000038
-4	-2	2	2	3	-0.000026	0.000028
-4	-2	2	3	3	0.000679	0.000000
-4	-2	2	4	3	-0.000014	0.000000
-4	-2	2	5	3	-0.000031	-0.000002
-4	-2	2	6	3	0.000002	0.000007
-4	-2	2	7	3	0.000000	0.000000
-4	-2	2	8	3	0.000027	-0.000005
-4	-2	2	1	4	-0.000604	-0.000001
-4	-2	2	2	4	-0.000998	0.000002
-4	-2	2	3	4	-0.000014	0.000000
-4	-2	2	4	4	0.000231	0.000000
-4	-2	2	5	4	-0.000014	-0.000013
-4	-2	2	6	4	0.000004	-0.000007
-4	-2	2	7	4	-0.000027	0.000005
-4	-2	2	8	4	0.000000	0.000000
-4	-2	2	1	5	0.000000	0.000000
-4	-2	2	2	5	0.000002	0.000004
-4	-2	2	3	5	0.000031	-0.000002
-4	-2	2	4	5	0.000014	-0.000013
-4	-2	2	5	5	-0.000520	0.000000
-4	-2	2	6	5	-0.000575	0.000015
-4	-2	2	7	5	-0.000002	-0.000038
-4	-2	2	8	5	0.000604	0.000001
-4	-2	2	1	6	0.000002	0.000004
-4	-2	2	2	6	0.000000	0.000000
-4	-2	2	3	6	0.000002	-0.000007
-4	-2	2	4	6	0.000004	0.000007
-4	-2	2	5	6	0.000575	0.000015
-4	-2	2	6	6	0.000141	0.000000
-4	-2	2	7	6	-0.000026	0.000028
-4	-2	2	8	6	-0.000998	0.000002
-4	-2	2	1	7	0.000031	-0.000002
-4	-2	2	2	7	-0.000002	0.000007
-4	-2	2	3	7	0.000000	0.000000
-4	-2	2	4	7	-0.000027	-0.000005
-4	-2	2	5	7	0.000002	-0.000038
-4	-2	2	6	7	-0.000026	-0.000028
-4	-2	2	7	7	0.000679	0.000000
-4	-2	2	8	7	-0.000014	0.000000
-4	-2	2	1	8	0.000014	-0.000013
-4	-2	2	2	8	-0.000004	-0.000007
-4	-2	2	3	8	0.000027	0.000005
-4	-2	2	4	8	0.000000	0.000000
-4	-2	2	5	8	-0.000604	0.000001
-4	-2	2	6	8	-0.000998	-0.000002
-4	-2	2	7	8	-0.000014	0.000000
-4	-2	2	8	8	0.000231	0.000000
-4	-2	3	1	1	-0.000747	0.000000
-4	-2	3	2	1	-0.000176	-0.000012
-4	-2	3	3	1	0.000071	-0.000039
-4	-2	3	4	1	0.000628	0.000018
-4	-2	3	5	1	0.000000	0.000000
-4	-2	3	6	1	-0.000021	0.000062
-4	-2	3	7	1	-0.000044	-0.000002
-4	-2	3	8	1	-0.000008	-0.000008
-4	-2	3	1	2	0.000176	-0.000012
-4	-2	3	2	2	0.000317	0.000000
-4	-2	3	3	2	0.000073	-0.000051
-4	-2	3	4	2	-0.000363	-0.000007
-4	-2	3	5	2	-0.000021	0.000062
-4	-2	3	6	2	0.000000	0.000000
-4	-2	3	7	2	-0.000042	0.000003
-4	-2	3	8	2	0.000002	-0.000024
-4	-2	3	1	3	-0.000071	-0.000039
-4	-2	3	2	3	0.000073	0.000051
-4	-2	3	3	3	0.000330	0.000000
-4	-2	3	4	3	0.000074	0.000013
-4	-2	3	5	3	-0.000044	-0.000002
-4	-2	3	6	3	0.000042	-0.000003
-4	-2	3	7	3	0.000000	0.000000
-4	-2	3	8	3	0.000020	0.000005
-4	-2	3	1	4	-0.000628	0.000018
-4	-2	3	2	4	-0.000363	0.000007
-4	-2	3	3	4	0.000074	-0.000013
-4	-2	3	4	4	0.000180	0.000000
-4	-2	3	5	4	-0.000008	-0.000008
-4	-2	3	6	4	-0.000002	0.000024
-4	-2	3	7	4	-0.000020	-0.000005
-4	-2	3	8	4	0.000000	0.000000
-4	-2	3	1	5	0.000000	0.000000
-4	-2	3	2	5	0.000021	0.000062
-4	-2	3	3	5	0.000044	-0.000002
-4	-2	3	4	5	0.000008	-0.000008
-4	-2	3	5	5	-0.000747	0.000000
-4	-2	3	6	5	-0.000176	0.000012
-4	-2	3	7	5	0.000071	0.000039
-4	-2	3	8	5	0.000628	-0.000018
-4	-2	3	1	6	0.000021	0.000062
-4	-2	3	2	6	0.000000	0.000000
-4	-2	3	3	6	0.000042	0.000003
-4	-2	3	4	6	-0.000002	-0.000024
-4	-2	3	5	6	0.000176	0.000012
-4	-2	3	6	6	0.000317	0.000000
-4	-2	3	7	6	0.000073	0.000051
-4	-2	3	8	6	-0.000363	0.000007
-4	-2	3	1	7	0.000044	-0.000002
-4	-2	3	2	7	-0.000042	-0.000003
-4	-2	3	3	7	0.000000	0.000000
-4	-2	3	4	7	-0.000020	0.000005
-4	-2	3	5	7	-0.000071	0.000039
-4	-2	3	6	7	0.000073	-0.000051
-4	-2	3	7	7	0.000330	0.000000
-4	-2	3	8	7	0.000074	-0.000013
-4	-2	3	1	8	0.000008	-0.000008
-4	-2	3	2	8	0.000002	0.000024
-4	-2	3	3	8	0.000020	-0.000005
-4	-2	3	4	8	0.000000	0.000000
-4	-2	3	5	8	-0.000628	-0.000018
-4	-2	3	6	8	-0.000363	-0.000007
-4	-2	3	7	8	0.000074	0.000013
-4	-2	3	8	8	0.000180	0.000000
-4	-2	4	1	1	-0.000592	0.000000
-4	-2	4	2	1	-0.000111	-0.000013
-4	-2	4	3	1	0.000078	-0.000108
-4	-2	4	4	1	0.000711	0.000005
-4	-2	4	5	1	0.000000	0.000000
-4	-2	4	6	1	-0.000009	0.000107
-4	-2	4	7	1	-0.000008	0.000013
-4	-2	4	8	1	-0.000003	0.000004
-4	-2	4	1	2	0.000111	-0.000013
-4	-2	4	2	2	0.000330	0.000000
-4	-2	4	3	2	-0.000025	-0.000032
-4	-2	4	4	2	-0.000080	-0.000011
-4	-2	4	5	2	-0.000009	0.000107
-4	-2	4	6	2	0.000000	0.000000
-4	-2	4	7	2	-0.000063	0.000028
-4	-2	4	8	2	0.000008	-0.000033
-4	-2	4	1	3	-0.000078	-0.000108
-4	-2	4	2	3	-0.000025	0.000032
-4	-2	4	3	3	0.000303	0.000000
-4	-2	4	4	3	0.000086	0.000019
-4	-2	4	5	3	-0.000008	0.000013
-4	-2	4	6	3	0.000063	-0.000028
-4	-2	4	7	3	0.000000	0.000000
-4	-2	4	8	3	0.000002	0.000004
-4	-2	4	1	4	-0.000711	0.000005
-4	-2	4	2	4	-0.000080	0.000011
-4	-2	4	3	4	0.000086	-0.000019
-4	-2	4	4	4	0.000102	0.000000
-4	-2	4	5	4	-0.000003	0.000004
-4	-2	4	6	4	-0.000008	0.000033
-4	-2	4	7	4	-0.000002	-0.000004
-4	-2	4	8	4	0.000000	0.000000
-4	-2	4	1	5	0.000000	0.000000
-4	-2	4	2	5	0.000009	0.000107
-4	-2	4	3	5	0.000008	0.000013
-4	-2	4	4	5	0.000003	0.000004
-4	-2	4	5	5	-0.000592	0.000000
-4	-2	4	6	5	-0.000111	0.000013
-4	-2	4	7	5	0.000078	0.000108
-4	-2	4	8	5	0.000711	-0.000005
-4	-2	4	1	6	0.000009	0.000107
-4	-2	4	2	6	0.000000	0.000000
-4	-2	4	3	6	0.000063	0.000028
-4	-2	4	4	6	-0.000008	-0.000033
-4	-2	4	5	6	0.000111	0.000013
-4	-2	4	6	6	0.000330	0.000000
-4	-2	4	7	6	-0.000025	0.000032
-4	-2	4	8	6	-0.000080	0.000011
-4	-2	4	1	7	0.000008	0.000013
-4	-2	4	2	7	-0.000063	-0.000028
-4	-2	4	3	7	0.000000	0.000000
-4	-2	4	4	7	-0.000002	0.000004
-4	-2	4	5	7	-0.000078	0.000108
-4	-2	4	6	7	-0.000025	-0.000032
-4	-2	4	7	7	0.000303	0.000000
-4	-2	4	8	7	0.000086	-0.000019
-4	-2	4	1	8	0.000003	0.000004
-4	-2	4	2	8	0.000008	0.000033
-4	-2	4	3	8	0.000002	-0.000004
-4	-2	4	4	8	0.000000	0.000000
-4	-2	4	5	8	-0.000711	-0.000005
-4	-2	4	6	8	-0.000080	-0.000011
-4	-2	4	7	8	0.000086	0.000019
-4	-2	4	8	8	0.000102	0.000000
-4	-1	-4	1	1	-0.001553	0.000000
-4	-1	-4	2	1	0.000292	0.000004
-4	-1	-4	3	1	0.000341	-0.000104
-4	-1	-4	4	1	0.000819	0.000004
-4	-1	-4	5	1	0.000000	0.000000
-4	-1	-4	6	1	0.000036	0.000104
-4	-1	-4	7	1	-0.000033	-0.000003
-4	-1	-4	8	1	0.000000	-0.000002
-4	-1	-4	1	2	-0.000292	0.000004
-4	-1	-4	2	2	0.000965	0.000000
-4	-1	-4	3	2	0.000150	0.000029
-4	-1	-4	4	2	0.000162	0.000019
-4	-1	-4	5	2	0.000036	0.000104
-4	-1	-4	6	2	0.000000	0.000000
-4	-1	-4	7	2	-0.000090	0.000030
-4	-1	-4	8	2	-0.000006	-0.000005
-4	-1	-4	1	3	-0.000341	-0.000104
-4	-1	-4	2	3	0.000150	-0.000029
-4	-1	-4	3	3	0.000969	0.000000
-4	-1	-4	4	3	0.000148	0.000004
-4	-1	-4	5	3	-0.000033	-0.000003
-4	-1	-4	6	3	0.000090	-0.000030
-4	-1	-4	7	3	0.000000	0.000000
-4	-1	-4	8	3	0.000007	-0.000019
-4	-1	-4	1	4	-0.000819	0.000004
-4	-1	-4	2	4	0.000162	-0.000019
-4	-1	-4	3	4	0.000148	-0.000004
-4	-1	-4	4	4	-0.000275	0.000000
-4	-1	-4	5	4	0.000000	-0.000002
-4	-1	-4	6	4	0.000006	0.000005
-4	-1	-4	7	4	-0.000007	0.000019
-4	-1	-4	8	4	0.000000	0.000000
-4	-1	-4	1	5	0.000000	0.000000
-4	-1	-4	2	5	-0.000036	0.000104
-4	-1	-4	3	5	0.000033	-0.000003
-4	-1	-4	4	5	0.000000	-0.000002
-4	-1	-4	5	5	-0.001553	0.000000
-4	-1	-4	6	5	0.000292	-0.000004
-4	-1	-4	7	5	0.000341	0.000104
-4	-1	-4	8	5	0.000819	-0.000004
-4	-1	-4	1	6	-0.000036	0.000104
-4	-1	-4	2	6	0.000000	0.000000
-4	-1	-4	3	6	0.000090	0.000030
-4	-1	-4	4	6	0.000006	-0.000005
-4	-1	-4	5	6	-0.000292	-0.000004
-4	-1	-4	6	6	0.000965	0.000000
-4	-1	-4	7	6	0.000150	-0.000029
-4	-1	-4	8	6	0.000162	-0.000019
-4	-1	-4	1	7	0.000033	-0.000003
-4	-1	-4	2	7	-0.000090	-0.000030
-4	-1	-4	3	7	0.000000	0.000000
-4	-1	-4	4	7	-0.000007	-0.000019
-4	-1	-4	5	7	-0.000341	0.000104
-4	-1	-4	6	7	0.000150	0.000029
-4	-1	-4	7	7	0.000969	0.000000
-4	-1	-4	8	7	0.000148	-0.000004
-4	-1	-4	1	8	0.000000	-0.000002
-4	-1	-4	2	8	-0.000006	0.000005
-4	-1	-4	3	8	0.000007	0.000019
-4	-1	-4	4	8	0.000000	0.000000
-4	-1	-4	5	8	-0.000819	-0.000004
-4	-1	-4	6	8	0.000162	0.000019
-4	-1	-4	7	8	0.000148	0.000004
-4	-1	-4	8	8	-0.000275	0.000000
-4	-1	-3	1	1	-0.001849	0.000000
-4	-1	-3	2	1	0.000943	0.000020
-4	-1	-3	3	1	0.000513	-0.000040
-4	-1	-3	4	1	0.000925	0.000019
-4	-1	-3	5	1	0.000000	0.000000
-4	-1	-3	6	1	0.000018	0.000060
-4	-1	-3	7	1	-0.000020	-0.000020
-4	-1	-3	8	1	-0.000001	-0.000007
-4	-1	-3	1	2	-0.000943	0.000020
-4	-1	-3	2	2	0.000981	0.000000
-4	-1	-3	3	2	0.000287	0.000033
-4	-1	-3	4	2	0.000582	0.000038
-4	-1	-3	5	2	0.000018	0.000060
-4	-1	-3	6	2	0.000000	0.000000
-4	-1	-3	7	2	-0.000034	0.000026
-4	-1	-3	8	2	0.000010	0.000004
-4	-1	-3	1	3	-0.000513	-0.000040
-4	-1	-3	2	3	0.000287	-0.000033
-4	-1	-3	3	3	0.001074	0.000000
-4	-1	-3	4	3	0.000182	0.000008
-4	-1	-3	5	3	-0.000020	-0.000020
-4	-1	-3	6	3	0.000034	-0.000026
-4	-1	-3	7	3	0.000000	0.000000
-4	-1	-3	8	3	0.000006	-0.000028
-4	-1	-3	1	4	-0.000925	0.000019
-4	-1	-3	2	4	0.000582	-0.000038
-4	-1	-3	3	4	0.000182	-0.000008
-4	-1	-3	4	4	-0.000294	0.000000
-4	-1	-3	5	4	-0.000001	-0.000007
-4	-1	-3	6	4	-0.000010	-0.000004
-4	-1	-3	7	4	-0.000006	0.000028
-4	-1	-3	8	4	0.000000	0.000000
-4	-1	-3	1	5	0.000000	0.000000
-4	-1	-3	2	5	-0.000018	0.000060
-4	-1	-3	3	5	0.000020	-0.000020
-4	-1	-3	4	5	0.000001	-0.000007
-4	-1	-3	5	5	-0.001849	0.000000
-4	-1	-3	6	5	0.000943	-0.000020
-4	-1	-3	7	5	0.000513	0.000040
-4	-1	-3	8	5	0.000925	-0.000019
-4	-1	-3	1	6	-0.000018	0.000060
-4	-1	-3	2	6	0.000000	0.000000
-4	-1	-3	3	6	0.000034	0.000026
-4	-1	-3	4	6	-0.000010	0.000004
-4	-1	-3	5	6	-0.000943	-0.000020
-4	-1	-3	6	6	0.000981	0.000000
-4	-1	-3	7	6	0.000287	-0.000033
-4	-1	-3	8	6	0.000582	-0.000038
-4	-1	-3	1	7	0.000020	-0.000020
-4	-1	-3	2	7	-0.000034	-0.000026
-4	-1	-3	3	7	0.000000	0.000000
-4	-1	-3	4	7	-0.000006	-0.000028
-4	-1	-3	5	7	-0.000513	0.000040
-4	-1	-3	6	7	0.000287	0.000033
-4	-1	-3	7	7	0.001074	0.000000
-4	-1	-3	8	7	0.000182	-0.000008
-4	-1	-3	1	8	0.000001	-0.000007
-4	-1	-3	2	8	0.000010	-0.000004
-4	-1	-3	3	8	0.000006	0.000028
-4	-1	-3	4	8	0.000000	0.000000
-4	-1	-3	5	8	-0.000925	-0.000019
-4	-1	-3	6	8	0.000582	0.000038
-4	-1	-3	7	8	0.000182	0.000008
-4	-1	-3	8	8	-0.000294	0.000000
-4	-1	-2	1	1	-0.001436	0.000000
-4	-1	-2	2	1	0.002609	0.000014
-4	-1	-2	3	1	0.000005	-0.000033
-4	-1	-2	4	1	0.001056	0.000021
-4	-1	-2	5	1	0.000000	0.000000
-4	-1	-2	6	1	-0.000013	-0.000020
-4	-1	-2	7	1	-0.000084	-0.000009
-4	-1	-2	8	1	0.000019	0.000019
-4	-1	-2	1	2	-0.002609	0.000014
-4	-1	-2	2	2	0.000797	0.000000
-4	-1	-2	3	2	0.001177	-0.000013
-4	-1	-2	4	2	0.001722	0.000065
-4	-1	-2	5	2	-0.000013	-0.000020
-4	-1	-2	6	2	0.000000	0.000000
-4	-1	-2	7	2	0.000055	0.000001
-4	-1	-2	8	2	0.000000	-0.000009
-4	-1	-2	1	3	-0.000005	-0.000033
-4	-1	-2	2	3	0.001177	0.000013
-4	-1	-2	3	3	0.001199	0.000000
-4	-1	-2	4	3	0.000249	-0.000070
-4	-1	-2	5	3	-0.000084	-0.000009
-4	-1	-2	6	3	-0.000055	-0.000001
-4	-1	-2	7	3	0.000000	0.000000
-4	-1	-2	8	3	0.000020	-0.000041
-4	-1	-2	1	4	-0.001056	0.000021
-4	-1	-2	2	4	0.001722	-0.000065
-4	-1	-2	3	4	0.000249	0.000070
-4	-1	-2	4	4	-0.000287	0.000000
-4	-1	-2	5	4	0.000019	0.000019
-4	-1	-2	6	4	0.000000	0.000009
-4	-1	-2	7	4	-0.000020	0.000041
-4	-1	-2	8	4	0.000000	0.000000
-4	-1	-2	1	5	0.000000	0.000000
-4	-1	-2	2	5	0.000013	-0.000020
-4	-1	-2	3	5	0.000084	-0.000009
-4	-1	-2	4	5	-0.000019	0.000019
-4	-1	-2	5	5	-0.001436	0.000000
-4	-1	-2	6	5	0.002609	-0.000014
-4	-1	-2	7	5	0.000005	0.000033
-4	-1	-2	8	5	0.001056	-0.000021
-4	-1	-2	1	6	0.000013	-0.000020
-4	-1	-2	2	6	0.000000	0.000000
-4	-1	-2	3	6	-0.000055	0.000001
-4	-1	-2	4	6	0.000000	-0.000009
-4	-1	-2	5	6	-0.002609	-0.000014
-4	-1	-2	6	6	0.000797	0.000000
-4	-1	-2	7	6	0.001177	0.000013
-4	-1	-2	8	6	0.001722	-0.000065
-4	-1	-2	1	7	0.000084	-0.000009
-4	-1	-2	2	7	0.000055	-0.000001
-4	-1	-2	3	7	0.000000	0.000000
-4	-1	-2	4	7	-0.000020	-0.000041
-4	-1	-2	5	7	-0.000005	0.000033
-4	-1	-2	6	7	0.001177	-0.000013
-4	-1	-2	7	7	0.001199	0.000000
-4	-1	-2	8	7	0.000249	0.000070
-4	-1	-2	1	8	-0.000019	0.000019
-4	-1	-2	2	8	0.000000	0.000009
-4	-1	-2	3	8	0.000020	0.000041
-4	-1	-2	4	8	0.000000	0.000000
-4	-1	-2	5	8	-0.001056	-0.000021
-4	-1	-2	6	8	0.001722	0.000065
-4	-1	-2	7	8	0.000249	-0.000070
-4	-1	-2	8	8	-0.000287	0.000000
-4	-1	-1	1	1	-0.005534	0.000000
-4	-1	-1	2	1	0.004668	0.000028
-4	-1	-1	3	1	0.001975	-0.000095
-4	-1	-1	4	1	0.004732	0.000030
-4	-1	-1	5	1	0.000000	0.000000
-4	-1	-1	6	1	0.000030	-0.000039
-4	-1	-1	7	1	-0.000093	0.000000
-4	-1	-1	8	1	0.000027	0.000039
-4	-1	-1	1	2	-0.004668	0.000028
-4	-1	-1	2	2	-0.001419	0.000000
-4	-1	-1	3	2	0.002717	0.000037
-4	-1	-1	4	2	0.002522	0.000000
-4	-1	-1	5	2	0.000030	-0.000039
-4	-1	-1	6	2	0.000000	0.000000
-4	-1	-1	7	2	0.000128	-0.000019
-4	-1	-1	8	2	0.000000	-0.000011
-4	-1	-1	1	3	-0.001975	-0.000095
-4	-1	-1	2	3	0.002717	-0.000037
-4	-1	-1	3	3	0.008552	0.000000
-4	-1	-1	4	3	0.002755	-0.000129
-4	-1	-1	5	3	-0.000093	0.000000
-4	-1	-1	6	3	-0.000128	0.000019
-4	-1	-1	7	3	0.000000	0.000000
-4	-1	-1	8	3	-0.000038	-0.000019
-4	-1	-1	1	4	-0.004732	0.000030
-4	-1	-1	2	4	0.002522	0.000000
-4	-1	-1	3	4	0.002755	0.000129
-4	-1	-1	4	4	-0.001384	0.000000
-4	-1	-1	5	4	0.000027	0.000039
-4	-1	-1	6	4	0.000000	0.000011
-4	-1	-1	7	4	0.000038	0.000019
-4	-1	-1	8	4	0.000000	0.000000
-4	-1	-1	1	5	0.000000	0.000000
-4	-1	-1	2	5	-0.000030	-0.000039
-4	-1	-1	3	5	0.000093	0.000000
-4	-1	-1	4	5	-0.000027	0.000039
-4	-1	-1	5	5	-0.005534	0.000000
-4	-1	-1	6	5	0.004668	-0.000028
-4	-1	-1	7	5	0.001975	0.000095
-4	-1	-1	8	5	0.004732	-0.000030
-4	-1	-1	1	6	-0.000030	-0.000039
-4	-1	-1	2	6	0.000000	0.000000
-4	-1	-1	3	6	-0.000128	-0.000019
-4	-1	-1	4	6	0.000000	-0.000011
-4	-1	-1	5	6	-0.004668	-0.000028
-4	-1	-1	6	6	-0.001419	0.000000
-4	-1	-1	7	6	0.002717	-0.000037
-4	-1	-1	8	6	0.002522	0.000000
-4	-1	-1	1	7	0.000093	0.000000
-4	-1	-1	2	7	0.000128	0.000019
-4	-1	-1	3	7	0.000000	0.000000
-4	-1	-1	4	7	0.000038	-0.000019
-4	-1	-1	5	7	-0.001975	0.000095
-4	-1	-1	6	7	0.002717	0.000037
-4	-1	-1	7	7	0.008552	0.000000
-4	-1	-1	8	7	0.002755	0.000129
-4	-1	-1	1	8	-0.000027	0.000039
-4	-1	-1	2	8	0.000000	0.000011
-4	-1	-1	3	8	-0.000038	0.000019
-4	-1	-1	4	8	0.000000	0.000000
-4	-1	-1	5	8	-0.004732	-0.000030
-4	-1	-1	6	8	0.002522	0.000000
-4	-1	-1	7	8	0.002755	-0.000129
-4	-1	-1	8	8	-0.001384	0.000000
-4	-1	0	1	1	-0.017604	0.000000
-4	-1	0	2	1	-0.000058	0.000005
-4	-1	0	3	1	0.009006	-0.000209
-4	-1	0	4	1	0.012114	0.000212
-4	-1	0	5	1	0.000000	0.000000
-4	-1	0	6	1	0.000176	0.000099
-4	-1	0	7	1	0.000012	-0.000004
-4	-1	0	8	1	0.000004	-0.000009
-4	-1	0	1	2	0.000058	0.000005
-4	-1	0	2	2	-0.003336	0.000000
-4	-1	0	3	2	0.000088	0.000007
-4	-1	0	4	2	0.000005	0.000004
-4	-1	0	5	2	0.000176	0.000099
-4	-1	0	6	2	0.000000	0.000000
-4	-1	0	7	2	0.000035	-0.000080
-4	-1	0	8	2	0.000012	-0.000050
-4	-1	0	1	3	-0.009006	-0.000209
-4	-1	0	2	3	0.000088	-0.000007
-4	-1	0	3	3	0.024474	0.000000
-4	-1	0	4	3	0.007403	0.000449
-4	-1	0	5	3	0.000012	-0.000004
-4	-1	0	6	3	-0.000035	0.000080
-4	-1	0	7	3	0.000000	0.000000
-4	-1	0	8	3	-0.000003	-0.000009
-4	-1	0	1	4	-0.012114	0.000212
-4	-1	0	2	4	0.000005	-0.000004
-4	-1	0	3	4	0.007403	-0.000449
-4	-1	0	4	4	-0.001606	0.000000
-4	-1	0	5	4	0.000004	-0.000009
-4	-1	0	6	4	-0.000012	0.000050
-4	-1	0	7	4	0.000003	0.000009
-4	-1	0	8	4	0.000000	0.000000
-4	-1	0	1	5	0.000000	0.000000
-4	-1	0	2	5	-0.000176	0.000099
-4	-1	0	3	5	-0.000012	-0.000004
-4	-1	0	4	5	-0.000004	-0.000009
-4	-1	0	5	5	-0.017604	0.000000
-4	-1	0	6	5	-0.000058	-0.000005
-4	-1	0	7	5	0.009006	0.000209
-4	-1	0	8	5	0.012114	-0.000212
-4	-1	0	1	6	-0.000176	0.000099
-4	-1	0	2	6	0.000000	0.000000
-4	-1	0	3	6	-0.000035	-0.000080
-4	-1	0	4	6	-0.000012	-0.000050
-4	-1	0	5	6	0.000058	-0.000005
-4	-1	0	6	6	-0.003336	0.000000
-4	-1	0	7	6	0.000088	-0.000007
-4	-1	0	8	6	0.000005	-0.000004
-4	-1	0	1	7	-0.000012	-0.000004
-4	-1	0	2	7	0.000035	0.000080
-4	-1	0	3	7	0.000000	0.000000
-4	-1	0	4	7	0.000003	-0.000009
-4	-1	0	5	7	-0.009006	0.000209
-4	-1	0	6	7	0.000088	0.000007
-4	-1	0	7	7	0.024474	0.000000
-4	-1	0	8	7	0.007403	-0.000449
-4	-1	0	1	8	-0.000004	-0.000009
-4	-1	0	2	8	0.000012	0.000050
-4	-1	0	3	8	-0.000003	0.000009
-4	-1	0	4	8	0.000000	0.000000
-4	-1	0	5	8	-0.012114	-0.000212
-4	-1	0	6	8	0.000005	0.000004
-4	-1	0	7	8	0.007403	0.000449
-4	-1	0	8	8	-0.001606	0.000000
-4	-1	1	1	1	-0.005495	0.000000
-4	-1	1	2	1	-0.004815	-0.000018
-4	-1	1	3	1	0.002296	-0.000093
-4	-1	1	4	1	0.004753	0.000026
-4	-1	1	5	1	0.000000	0.000000
-4	-1	1	6	1	0.000042	-0.000036
-4	-1	1	7	1	0.000097	0.000005
-4	-1	1	8	1	-0.000022	-0.000044
-4	-1	1	1	2	0.004815	-0.000018
-4	-1	1	2	2	-0.001368	0.000000
-4	-1	1	3	2	-0.002852	-0.000043
-4	-1	1	4	2	-0.002441	-0.000005
-4	-1	1	5	2	0.000042	-0.000036
-4	-1	1	6	2	0.000000	0.000000
-4	-1	1	7	2	0.000127	-0.000042
-4	-1	1	8	2	0.000002	-0.000010
-4	-1	1	1	3	-0.002296	-0.000093
-4	-1	1	2	3	-0.002852	0.000043
-4	-1	1	3	3	0.008655	0.000000
-4	-1	1	4	3	0.002745	-0.000114
-4	-1	1	5	3	0.000097	0.000005
-4	-1	1	6	3	-0.000127	0.000042
-4	-1	1	7	3	0.000000	0.000000
-4	-1	1	8	3	0.000039	0.000030
-4	-1	1	1	4	-0.004753	0.000026
-4	-1	1	2	4	-0.002441	0.000005
-4	-1	1	3	4	0.002745	0.000114
-4	-1	1	4	4	-0.001436	0.000000
-4	-1	1	5	4	-0.000022	-0.000044
-4	-1	1	6	4	-0.000002	0.000010
-4	-1	1	7	4	-0.000039	-0.000030
-4	-1	1	8	4	0.000000	0.000000
-4	-1	1	1	5	0.000000	0.000000
-4	-1	1	2	5	-0.000042	-0.000036
-4	-1	1	3	5	-0.000097	0.000005
-4	-1	1	4	5	0.000022	-0.000044
-4	-1	1	5	5	-0.005495	0.000000
-4	-1	1	6	5	-0.004815	0.000018
-4	-1	1	7	5	0.002296	0.000093
-4	-1	1	8	5	0.004753	-0.000026
-4	-1	1	1	6	-0.000042	-0.000036
-4	-1	1	2	6	0.000000	0.000000
-4	-1	1	3	6	-0.000127	-0.000042
-4	-1	1	4	6	-0.000002	-0.000010
-4	-1	1	5	6	0.004815	0.000018
-4	-1	1	6	6	-0.001368	0.000000
-4	-1	1	7	6	-0.002852	0.000043
-4	-1	1	8	6	-0.002441	0.000005
-4	-1	1	1	7	-0.000097	0.000005
-4	-1	1	2	7	0.000127	0.000042
-4	-1	1	3	7	0.000000	0.000000
-4	-1	1	4	7	-0.000039	0.000030
-4	-1	1	5	7	-0.002296	0.000093
-4	-1	1	6	7	-0.002852	-0.000043
-4	-1	1	7	7	0.008655	0.000000
-4	-1	1	8	7	0.002745	0.000114
-4	-1	1	1	8	0.000022	-0.000044
-4	-1	1	2	8	0.000002	0.000010
-4	-1	1	3	8	0.000039	-0.000030
-4	-1	1	4	8	0.000000	0.000000
-4	-1	1	5	8	-0.004753	-0.000026
-4	-1	1	6	8	-0.002441	-0.000005
-4	-1	1	7	8	0.002745	-0.000114
-4	-1	1	8	8	-0.001436	0.000000
-4	-1	2	1	1	-0.001427	0.000000
-4	-1	2	2	1	-0.002741	-0.000002
-4	-1	2	3	1	-0.000009	-0.000028
-4	-1	2	4	1	0.001087	0.000020
-4	-1	2	5	1	0.000000	0.000000
-4	-1	2	6	1	-0.000011	-0.000017
-4	-1	2	7	1	0.000082	0.000009
-4	-1	2	8	1	-0.000016	-0.000020
-4	-1	2	1	2	0.002741	-0.000002
-4	-1	2	2	2	0.000883	0.000000
-4	-1	2	3	2	-0.001440	0.000001
-4	-1	2	4	2	-0.001761	-0.000066
-4	-1	2	5	2	-0.000011	-0.000017
-4	-1	2	6	2	0.000000	0.000000
-4	-1	2	7	2	0.000075	-0.000011
-4	-1	2	8	2	0.000006	-0.000014
-4	-1	2	1	3	0.000009	-0.000028
-4	-1	2	2	3	-0.001440	-0.000001
-4	-1	2	3	3	0.001226	0.000000
-4	-1	2	4	3	0.000387	-0.000083
-4	-1	2	5	3	0.000082	0.000009
-4	-1	2	6	3	-0.000075	0.000011
-4	-1	2	7	3	0.000000	0.000000
-4	-1	2	8	3	-0.000012	0.000029
-4	-1	2	1	4	-0.001087	0.000020
-4	-1	2	2	4	-0.001761	0.000066
-4	-1	2	3	4	0.000387	0.000083
-4	-1	2	4	4	-0.000343	0.000000
-4	-1	2	5	4	-0.000016	-0.000020
-4	-1	2	6	4	-0.000006	0.000014
-4	-1	2	7	4	0.000012	-0.000029
-4	-1	2	8	4	0.000000	0.000000
-4	-1	2	1	5	0.000000	0.000000
-4	-1	2	2	5	0.000011	-0.000017
-4	-1	2	3	5	-0.000082	0.000009
-4	-1	2	4	5	0.000016	-0.000020
-4	-1	2	5	5	-0.001427	0.000000
-4	-1	2	6	5	-0.002741	0.000002
-4	-1	2	7	5	-0.000009	0.000028
-4	-1	2	8	5	0.001087	-0.000020
-4	-1	2	1	6	0.000011	-0.000017
-4	-1	2	2	6	0.000000	0.000000
-4	-1	2	3	6	-0.000075	-0.000011
-4	-1	2	4	6	-0.000006	-0.000014
-4	-1	2	5	6	0.002741	0.000002
-4	-1	2	6	6	0.000883	0.000000
-4	-1	2	7	6	-0.001440	-0.000001
-4	-1	2	8	6	-0.001761	0.000066
-4	-1	2	1	7	-0.000082	0.000009
-4	-1	2	2	7	0.000075	0.000011
-4	-1	2	3	7	0.000000	0.000000
-4	-1	2	4	7	0.000012	0.000029
-4	-1	2	5	7	0.000009	0.000028
-4	-1	2	6	7	-0.001440	0.000001
-4	-1	2	7	7	0.001226	0.000000
-4	-1	2	8	7	0.000387	0.000083
-4	-1	2	1	8	0.000016	-0.000020
-4	-1	2	2	8	0.000006	0.000014
-4	-1	2	3	8	-0.000012	-0.000029
-4	-1	2	4	8	0.000000	0.000000
-4	-1	2	5	8	-0.001087	-0.000020
-4	-1	2	6	8	-0.001761	-0.000066
-4	-1	2	7	8	0.000387	-0.000083
-4	-1	2	8	8	-0.000343	0.000000
-4	-1	3	1	1	-0.001888	0.000000
-4	-1	3	2	1	-0.000995	-0.000018
-4	-1	3	3	1	0.000410	-0.000045
-4	-1	3	4	1	0.000973	0.000018
-4	-1	3	5	1	0.000000	0.000000
-4	-1	3	6	1	0.000019	0.000064
-4	-1	3	7	1	0.000025	0.000020
-4	-1	3	8	1	-0.000002	0.000012
-4	-1	3	1	2	0.000995	-0.000018
-4	-1	3	2	2	0.001087	0.000000
-4	-1	3	3	2	-0.000484	-0.000038
-4	-1	3	4	2	-0.000541	-0.000041
-4	-1	3	5	2	0.000019	0.000064
-4	-1	3	6	2	0.000000	0.000000
-4	-1	3	7	2	-0.000013	0.000014
-4	-1	3	8	2	0.000016	-0.000007
-4	-1	3	1	3	-0.000410	-0.000045
-4	-1	3	2	3	-0.000484	0.000038
-4	-1	3	3	3	0.000995	0.000000
-4	-1	3	4	3	0.000153	0.000004
-4	-1	3	5	3	0.000025	0.000020
-4	-1	3	6	3	0.000013	-0.000014
-4	-1	3	7	3	0.000000	0.000000
-4	-1	3	8	3	-0.000009	0.000047
-4	-1	3	1	4	-0.000973	0.000018
-4	-1	3	2	4	-0.000541	0.000041
-4	-1	3	3	4	0.000153	-0.000004
-4	-1	3	4	4	-0.000246	0.000000
-4	-1	3	5	4	-0.000002	0.000012
-4	-1	3	6	4	-0.000016	0.000007
-4	-1	3	7	4	0.000009	-0.000047
-4	-1	3	8	4	0.000000	0.000000
-4	-1	3	1	5	0.000000	0.000000
-4	-1	3	2	5	-0.000019	0.000064
-4	-1	3	3	5	-0.000025	0.000020
-4	-1	3	4	5	0.000002	0.000012
-4	-1	3	5	5	-0.001888	0.000000
-4	-1	3	6	5	-0.000995	0.000018
-4	-1	3	7	5	0.000410	0.000045
-4	-1	3	8	5	0.000973	-0.000018
-4	-1	3	1	6	-0.000019	0.000064
-4	-1	3	2	6	0.000000	0.000000
-4	-1	3	3	6	0.000013	0.000014
-4	-1	3	4	6	-0.000016	-0.000007
-4	-1	3	5	6	0.000995	0.000018
-4	-1	3	6	6	0.001087	0.000000
-4	-1	3	7	6	-0.000484	0.000038
-4	-1	3	8	6	-0.000541	0.000041
-4	-1	3	1	7	-0.000025	0.000020
-4	-1	3	2	7	-0.000013	-0.000014
-4	-1	3	3	7	0.000000	0.000000
-4	-1	3	4	7	0.000009	0.000047
-4	-1	3	5	7	-0.000410	0.000045
-4	-1	3	6	7	-0.000484	-0.000038
-4	-1	3	7	7	0.000995	0.000000
-4	-1	3	8	7	0.000153	-0.000004
-4	-1	3	1	8	0.000002	0.000012
-4	-1	3	2	8	0.000016	0.000007
-4	-1	3	3	8	-0.000009	-0.000047
-4	-1	3	4	8	0.000000	0.000000
-4	-1	3	5	8	-0.000973	-0.000018
-4	-1	3	6	8	-0.000541	-0.000041
-4	-1	3	7	8	0.000153	0.000004
-4	-1	3	8	8	-0.000246	0.000000
-4	-1	4	1	1	-0.001539	0.000000
-4	-1	4	2	1	-0.000395	-0.000009
-4	-1	4	3	1	0.000398	-0.000108
-4	-1	4	4	1	0.000753	0.000021
-4	-1	4	5	1	0.000000	0.000000
-4	-1	4	6	1	0.000040	0.000101
-4	-1	4	7	1	0.000039	0.000008
-4	-1	4	8	1	-0.000005	0.000014
-4	-1	4	1	2	0.000395	-0.000009
-4	-1	4	2	2	0.001054	0.000000
-4	-1	4	3	2	-0.000297	-0.000010
-4	-1	4	4	2	-0.000173	-0.000016
-4	-1	4	5	2	0.000040	0.000101
-4	-1	4	6	2	0.000000	0.000000
-4	-1	4	7	2	-0.000093	0.000026
-4	-1	4	8	2	-0.000006	-0.000016
-4	-1	4	1	3	-0.000398	-0.000108
-4	-1	4	2	3	-0.000297	0.000010
-4	-1	4	3	3	0.001020	0.000000
-4	-1	4	4	3	0.000161	0.000005
-4	-1	4	5	3	0.000039	0.000008
-4	-1	4	6	3	0.000093	-0.000026
-4	-1	4	7	3	0.000000	0.000000
-4	-1	4	8	3	-0.000003	0.000015
-4	-1	4	1	4	-0.000753	0.000021
-4	-1	4	2	4	-0.000173	0.000016
-4	-1	4	3	4	0.000161	-0.000005
-4	-1	4	4	4	-0.000261	0.000000
-4	-1	4	5	4	-0.000005	0.000014
-4	-1	4	6	4	0.000006	0.000016
-4	-1	4	7	4	0.000003	-0.000015
-4	-1	4	8	4	0.000000	0.000000
-4	-1	4	1	5	0.000000	0.000000
-4	-1	4	2	5	-0.000040	0.000101
-4	-1	4	3	5	-0.000039	0.000008
-4	-1	4	4	5	0.000005	0.000014
-4	-1	4	5	5	-0.001539	0.000000
-4	-1	4	6	5	-0.000395	0.000009
-4	-1	4	7	5	0.000398	0.000108
-4	-1	4	8	5	0.000753	-0.000021
-4	-1	4	1	6	-0.000040	0.000101
-4	-1	4	2	6	0.000000	0.000000
-4	-1	4	3	6	0.000093	0.000026
-4	-1	4	4	6	0.000006	-0.000016
-4	-1	4	5	6	0.000395	0.000009
-4	-1	4	6	6	0.001054	0.000000
-4	-1	4	7	6	-0.000297	0.000010
-4	-1	4	8	6	-0.000173	0.000016
-4	-1	4	1	7	-0.000039	0.000008
-4	-1	4	2	7	-0.000093	-0.000026
-4	-1	4	3	7	0.000000	0.000000
-4	-1	4	4	7	0.000003	0.000015
-4	-1	4	5	7	-0.000398	0.000108
-4	-1	4	6	7	-0.000297	-0.000010
-4	-1	4	7	7	0.001020	0.000000
-4	-1	4	8	7	0.000161	-0.000005
-4	-1	4	1	8	0.000005	0.000014
-4	-1	4	2	8	-0.000006	0.000016
-4	-1	4	3	8	-0.000003	-0.000015
-4	-1	4	4	8	0.000000	0.000000
-4	-1	4	5	8	-0.000753	-0.000021
-4	-1	4	6	8	-0.000173	-0.000016
-4	-1	4	7	8	0.000161	0.000005
-4	-1	4	8	8	-0.000261	0.000000
-4	0	-4	1	1	-0.002805	0.000000
-4	0	-4	2	1	0.000613	-0.000002
-4	0	-4	3	1	0.000619	0.000006
-4	0	-4	4	1	0.000034	0.000010
-4	0	-4	5	1	0.000000	0.000000
-4	0	-4	6	1	0.000028	-0.000006
-4	0	-4	7	1	-0.000027	0.000002
-4	0	-4	8	1	0.000000	-0.000010
-4	0	-4	1	2	-0.000613	-0.000002
-4	0	-4	2	2	0.001431	0.000000
-4	0	-4	3	2	0.000013	-0.000002
-4	0	-4	4	2	0.000038	-0.000002
-4	0	-4	5	2	0.000028	-0.000006
-4	0	-4	6	2	0.000000	0.000000
-4	0	-4	7	2	-0.000177	-0.000001
-4	0	-4	8	2	0.000000	0.000008
-4	0	-4	1	3	-0.000619	0.000006
-4	0	-4	2	3	0.000013	0.000002
-4	0	-4	3	3	0.001430	0.000000
-4	0	-4	4	3	-0.000005	-0.000008
-4	0	-4	5	3	-0.000027	0.000002
-4	0	-4	6	3	0.000177	0.000001
-4	0	-4	7	3	0.000000	0.000000
-4	0	-4	8	3	0.000003	0.000003
-4	0	-4	1	4	-0.000034	0.000010
-4	0	-4	2	4	0.000038	0.000002
-4	0	-4	3	4	-0.000005	0.000008
-4	0	-4	4	4	-0.000538	0.000000
-4	0	-4	5	4	0.000000	-0.000010
-4	0	-4	6	4	0.000000	-0.000008
-4	0	-4	7	4	-0.000003	-0.000003
-4	0	-4	8	4	0.000000	0.000000
-4	0	-4	1	5	0.000000	0.000000
-4	0	-4	2	5	-0.000028	-0.000006
-4	0	-4	3	5	0.000027	0.000002
-4	0	-4	4	5	0.000000	-0.000010
-4	0	-4	5	5	-0.002805	0.000000
-4	0	-4	6	5	0.000613	0.000002
-4	0	-4	7	5	0.000619	-0.000006
-4	0	-4	8	5	0.000034	-0.000010
-4	0	-4	1	6	-0.000028	-0.000006
-4	0	-4	2	6	0.000000	0.000000
-4	0	-4	3	6	0.000177	-0.000001
-4	0	-4	4	6	0.000000	0.000008
-4	0	-4	5	6	-0.000613	0.000002
-4	0	-4	6	6	0.001431	0.000000
-4	0	-4	7	6	0.000013	0.000002
-4	0	-4	8	6	0.000038	0.000002
-4	0	-4	1	7	0.000027	0.000002
-4	0	-4	2	7	-0.000177	0.000001
-4	0	-4	3	7	0.000000	0.000000
-4	0	-4	4	7	-0.000003	0.000003
-4	0	-4	5	7	-0.000619	-0.000006
-4	0	-4	6	7	0.000013	-0.000002
-4	0	-4	7	7	0.001430	0.000000
-4	0	-4	8	7	-0.000005	0.000008
-4	0	-4	1	8	0.000000	-0.000010
-4	0	-4	2	8	0.000000	-0.000008
-4	0	-4	3	8	0.000003	-0.000003
-4	0	-4	4	8	0.000000	0.000000
-4	0	-4	5	8	-0.000034	-0.000010
-4	0	-4	6	8	0.000038	-0.000002
-4	0	-4	7	8	-0.000005	-0.000008
-4	0	-4	8	8	-0.000538	0.000000
-4	0	-3	1	1	-0.003691	0.000000
-4	0	-3	2	1	0.002188	0.000000
-4	0	-3	3	1	0.001071	0.000005
-4	0	-3	4	1	0.000046	0.000015
-4	0	-3	5	1	0.000000	0.000000
-4	0	-3	6	1	0.000057	-0.000001
-4	0	-3	7	1	-0.000106	0.000004
-4	0	-3	8	1	0.000005	-0.000035
-4	0	-3	1	2	-0.002188	0.000000
-4	0	-3	2	2	0.002001	0.000000
-4	0	-3	3	2	0.000860	0.000004
-4	0	-3	4	2	0.000066	0.000042
-4	0	-3	5	2	0.000057	-0.000001
-4	0	-3	6	2	0.000000	0.000000
-4	0	-3	7	2	-0.000149	-0.000002
-4	0	-3	8	2	-0.000003	-0.000004
-4	0	-3	1	3	-0.001071	0.000005
-4	0	-3	2	3	0.000860	-0.000004
-4	0	-3	3	3	0.003015	0.000000
-4	0	-3	4	3	-0.000001	0.000028
-4	0	-3	5	3	-0.000106	0.000004
-4	0	-3	6	3	0.000149	0.000002
-4	0	-3	7	3	0.000000	0.000000
-4	0	-3	8	3	-0.000009	-0.000068
-4	0	-3	1	4	-0.000046	0.000015
-4	0	-3	2	4	0.000066	-0.000042
-4	0	-3	3	4	-0.000001	-0.000028
-4	0	-3	4	4	-0.000649	0.000000
-4	0	-3	5	4	0.000005	-0.000035
-4	0	-3	6	4	0.000003	0.000004
-4	0	-3	7	4	0.000009	0.000068
-4	0	-3	8	4	0.000000	0.000000
-4	0	-3	1	5	0.000000	0.000000
-4	0	-3	2	5	-0.000057	-0.000001
-4	0	-3	3	5	0.000106	0.000004
-4	0	-3	4	5	-0.000005	-0.000035
-4	0	-3	5	5	-0.003691	0.000000
-4	0	-3	6	5	0.002188	0.000000
-4	0	-3	7	5	0.001071	-0.000005
-4	0	-3	8	5	0.000046	-0.000015
-4	0	-3	1	6	-0.000057	-0.000001
-4	0	-3	2	6	0.000000	0.000000
-4	0	-3	3	6	0.000149	-0.000002
-4	0	-3	4	6	0.000003	-0.000004
-4	0	-3	5	6	-0.002188	0.000000
-4	0	-3	6	6	0.002001	0.000000
-4	0	-3	7	6	0.000860	-0.000004
-4	0	-3	8	6	0.000066	-0.000042
-4	0	-3	1	7	0.000106	0.000004
-4	0	-3	2	7	-0.000149	0.000002
-4	0	-3	3	7	0.000000	0.000000
-4	0	-3	4	7	0.000009	-0.000068
-4	0	-3	5	7	-0.001071	-0.000005
-4	0	-3	6	7	0.000860	0.000004
-4	0	-3	7	7	0.003015	0.000000
-4	0	-3	8	7	-0.000001	-0.000028
-4	0	-3	1	8	-0.000005	-0.000035
-4	0	-3	2	8	-0.000003	0.000004
-4	0	-3	3	8	-0.000009	0.000068
-4	0	-3	4	8	0.000000	0.000000
-4	0	-3	5	8	-0.000046	-0.000015
-4	0	-3	6	8	0.000066	0.000042
-4	0	-3	7	8	-0.000001	0.000028
-4	0	-3	8	8	-0.000649	0.000000
-4	0	-2	1	1	-0.004618	0.000000
-4	0	-2	2	1	0.006420	0.000004
-4	0	-2	3	1	0.000962	0.000001
-4	0	-2	4	1	-0.000035	0.000027
-4	0	-2	5	1	0.000000	0.000000
-4	0	-2	6	1	0.000000	-0.000001
-4	0	-2	7	1	-0.000269	-0.000001
-4	0	-2	8	1	0.000001	0.000014
-4	0	-2	1	2	-0.006420	0.000004
-4	0	-2	2	2	0.001937	0.000000
-4	0	-2	3	2	0.003201	0.000008
-4	0	-2	4	2	0.000066	0.000098
-4	0	-2	5	2	0.000000	-0.000001
-4	0	-2	6	2	0.000000	0.000000
-4	0	-2	7	2	-0.000072	-0.000002
-4	0	-2	8	2	-0.000002	-0.000018
[...]
4	3	3	3	3	0.000189	0.000000
4	3	3	4	3	0.000037	0.000026
4	3	3	5	3	0.000000	0.000000
4	3	3	6	3	0.000026	-0.000015
4	3	3	7	3	0.000000	0.000000
4	3	3	8	3	-0.000042	0.000014
4	3	3	1	4	0.000217	-0.000022
4	3	3	2	4	0.000001	-0.000005
4	3	3	3	4	0.000037	-0.000026
4	3	3	4	4	0.000247	0.000000
4	3	3	5	4	-0.000004	0.000010
4	3	3	6	4	0.000006	0.000007
4	3	3	7	4	0.000042	-0.000014
4	3	3	8	4	0.000000	0.000000
4	3	3	1	5	0.000000	0.000000
4	3	3	2	5	0.000022	-0.000010
4	3	3	3	5	0.000000	0.000000
4	3	3	4	5	0.000004	0.000010
4	3	3	5	5	-0.000719	0.000000
4	3	3	6	5	-0.000216	0.000004
4	3	3	7	5	-0.000119	0.000000
4	3	3	8	5	-0.000217	0.000022
4	3	3	1	6	0.000022	-0.000010
4	3	3	2	6	0.000000	0.000000
4	3	3	3	6	0.000026	0.000015
4	3	3	4	6	0.000006	-0.000007
4	3	3	5	6	0.000216	0.000004
4	3	3	6	6	0.000251	0.000000
4	3	3	7	6	0.000037	-0.000042
4	3	3	8	6	0.000001	-0.000005
4	3	3	1	7	0.000000	0.000000
4	3	3	2	7	-0.000026	-0.000015
4	3	3	3	7	0.000000	0.000000
4	3	3	4	7	0.000042	0.000014
4	3	3	5	7	0.000119	0.000000
4	3	3	6	7	0.000037	0.000042
4	3	3	7	7	0.000189	0.000000
4	3	3	8	7	0.000037	-0.000026
4	3	3	1	8	0.000004	0.000010
4	3	3	2	8	-0.000006	0.000007
4	3	3	3	8	-0.000042	-0.000014
4	3	3	4	8	0.000000	0.000000
4	3	3	5	8	0.000217	0.000022
4	3	3	6	8	0.000001	0.000005
4	3	3	7	8	0.000037	0.000026
4	3	3	8	8	0.000247	0.000000
4	3	4	1	1	-0.000684	0.000000
4	3	4	2	1	-0.000007	0.000004
4	3	4	3	1	-0.000012	0.000047
4	3	4	4	1	-0.000376	0.000002
4	3	4	5	1	0.000000	0.000000
4	3	4	6	1	0.000000	-0.000046
4	3	4	7	1	-0.000001	-0.000004
4	3	4	8	1	0.000000	-0.000003
4	3	4	1	2	0.000007	0.000004
4	3	4	2	2	0.000239	0.000000
4	3	4	3	2	-0.000088	0.000016
4	3	4	4	2	-0.000056	-0.000007
4	3	4	5	2	0.000000	-0.000046
4	3	4	6	2	0.000000	0.000000
4	3	4	7	2	-0.000047	0.000017
4	3	4	8	2	0.000009	-0.000007
4	3	4	1	3	0.000012	0.000047
4	3	4	2	3	-0.000088	-0.000016
4	3	4	3	3	0.000235	0.000000
4	3	4	4	3	-0.000053	0.000007
4	3	4	5	3	-0.000001	-0.000004
4	3	4	6	3	0.000047	-0.000017
4	3	4	7	3	0.000000	0.000000
4	3	4	8	3	-0.000009	0.000007
4	3	4	1	4	0.000376	0.000002
4	3	4	2	4	-0.000056	0.000007
4	3	4	3	4	-0.000053	-0.000007
4	3	4	4	4	0.000245	0.000000
4	3	4	5	4	0.000000	-0.000003
4	3	4	6	4	-0.000009	0.000007
4	3	4	7	4	0.000009	-0.000007
4	3	4	8	4	0.000000	0.000000
4	3	4	1	5	0.000000	0.000000
4	3	4	2	5	0.000000	-0.000046
4	3	4	3	5	0.000001	-0.000004
4	3	4	4	5	0.000000	-0.000003
4	3	4	5	5	-0.000684	0.000000
4	3	4	6	5	-0.000007	-0.000004
4	3	4	7	5	-0.000012	-0.000047
4	3	4	8	5	-0.000376	-0.000002
4	3	4	1	6	0.000000	-0.000046
4	3	4	2	6	0.000000	0.000000
4	3	4	3	6	0.000047	0.000017
4	3	4	4	6	-0.000009	-0.000007
4	3	4	5	6	0.000007	-0.000004
4	3	4	6	6	0.000239	0.000000
4	3	4	7	6	-0.000088	-0.000016
4	3	4	8	6	-0.000056	0.000007
4	3	4	1	7	0.000001	-0.000004
4	3	4	2	7	-0.000047	-0.000017
4	3	4	3	7	0.000000	0.000000
4	3	4	4	7	0.000009	0.000007
4	3	4	5	7	0.000012	-0.000047
4	3	4	6	7	-0.000088	0.000016
4	3	4	7	7	0.000235	0.000000
4	3	4	8	7	-0.000053	-0.000007
4	3	4	1	8	0.000000	-0.000003
4	3	4	2	8	0.000009	0.000007
4	3	4	3	8	-0.000009	-0.000007
4	3	4	4	8	0.000000	0.000000
4	3	4	5	8	0.000376	-0.000002
4	3	4	6	8	-0.000056	-0.000007
4	3	4	7	8	-0.000053	0.000007
4	3	4	8	8	0.000245	0.000000
4	4	-4	1	1	-0.001009	0.000000
4	4	-4	2	1	0.000155	0.000000
4	4	-4	3	1	-0.000155	0.000020
4	4	-4	4	1	-0.000153	-0.000020
4	4	-4	5	1	0.000000	0.000000
4	4	-4	6	1	-0.000018	-0.000018
4	4	-4	7	1	-0.000018	-0.000004
4	4	-4	8	1	-0.000004	-0.000018
4	4	-4	1	2	-0.000155	0.000000
4	4	-4	2	2	0.000259	0.000000
4	4	-4	3	2	-0.000052	0.000004
4	4	-4	4	2	-0.000051	-0.000004
4	4	-4	5	2	-0.000018	-0.000018
4	4	-4	6	2	0.000000	0.000000
4	4	-4	7	2	0.000024	-0.000005
4	4	-4	8	2	-0.000005	0.000023
4	4	-4	1	3	0.000155	0.000020
4	4	-4	2	3	-0.000052	-0.000004
4	4	-4	3	3	0.000235	0.000000
4	4	-4	4	3	0.000044	-0.000026
4	4	-4	5	3	-0.000018	-0.000004
4	4	-4	6	3	-0.000024	0.000005
4	4	-4	7	3	0.000000	0.000000
4	4	-4	8	3	-0.000001	0.000002
4	4	-4	1	4	0.000153	-0.000020
4	4	-4	2	4	-0.000051	0.000004
4	4	-4	3	4	0.000044	0.000026
4	4	-4	4	4	0.000234	0.000000
4	4	-4	5	4	-0.000004	-0.000018
4	4	-4	6	4	0.000005	-0.000023
4	4	-4	7	4	0.000001	-0.000002
4	4	-4	8	4	0.000000	0.000000
4	4	-4	1	5	0.000000	0.000000
4	4	-4	2	5	0.000018	-0.000018
4	4	-4	3	5	0.000018	-0.000004
4	4	-4	4	5	0.000004	-0.000018
4	4	-4	5	5	-0.001009	0.000000
4	4	-4	6	5	0.000155	0.000000
4	4	-4	7	5	-0.000155	-0.000020
4	4	-4	8	5	-0.000153	0.000020
4	4	-4	1	6	0.000018	-0.000018
4	4	-4	2	6	0.000000	0.000000
4	4	-4	3	6	-0.000024	-0.000005
4	4	-4	4	6	0.000005	0.000023
4	4	-4	5	6	-0.000155	0.000000
4	4	-4	6	6	0.000259	0.000000
4	4	-4	7	6	-0.000052	-0.000004
4	4	-4	8	6	-0.000051	0.000004
4	4	-4	1	7	0.000018	-0.000004
4	4	-4	2	7	0.000024	0.000005
4	4	-4	3	7	0.000000	0.000000
4	4	-4	4	7	0.000001	0.000002
4	4	-4	5	7	0.000155	-0.000020
4	4	-4	6	7	-0.000052	0.000004
4	4	-4	7	7	0.000235	0.000000
4	4	-4	8	7	0.000044	0.000026
4	4	-4	1	8	0.000004	-0.000018
4	4	-4	2	8	-0.000005	-0.000023
4	4	-4	3	8	-0.000001	-0.000002
4	4	-4	4	8	0.000000	0.000000
4	4	-4	5	8	0.000153	0.000020
4	4	-4	6	8	-0.000051	-0.000004
4	4	-4	7	8	0.000044	-0.000026
4	4	-4	8	8	0.000234	0.000000
4	4	-3	1	1	-0.000688	0.000000
4	4	-3	2	1	0.000363	0.000000
4	4	-3	3	1	-0.000011	-0.000011
4	4	-3	4	1	-0.000011	0.000011
4	4	-3	5	1	0.000000	0.000000
4	4	-3	6	1	0.000002	0.000002
4	4	-3	7	1	-0.000049	-0.000005
4	4	-3	8	1	-0.000005	-0.000049
4	4	-3	1	2	-0.000363	0.000000
4	4	-3	2	2	0.000238	0.000000
4	4	-3	3	2	0.000026	-0.000007
4	4	-3	4	2	0.000026	0.000008
4	4	-3	5	2	0.000002	0.000002
4	4	-3	6	2	0.000000	0.000000
4	4	-3	7	2	-0.000004	0.000007
4	4	-3	8	2	0.000007	-0.000004
4	4	-3	1	3	0.000011	-0.000011
4	4	-3	2	3	0.000026	0.000007
4	4	-3	3	3	0.000189	0.000000
4	4	-3	4	3	-0.000076	0.000041
4	4	-3	5	3	-0.000049	-0.000005
4	4	-3	6	3	0.000004	-0.000007
4	4	-3	7	3	0.000000	0.000000
4	4	-3	8	3	0.000017	-0.000017
4	4	-3	1	4	0.000011	0.000011
4	4	-3	2	4	0.000026	-0.000008
4	4	-3	3	4	-0.000076	-0.000041
4	4	-3	4	4	0.000191	0.000000
4	4	-3	5	4	-0.000005	-0.000049
4	4	-3	6	4	-0.000007	0.000004
4	4	-3	7	4	-0.000017	0.000017
4	4	-3	8	4	0.000000	0.000000
4	4	-3	1	5	0.000000	0.000000
4	4	-3	2	5	-0.000002	0.000002
4	4	-3	3	5	0.000049	-0.000005
4	4	-3	4	5	0.000005	-0.000049
4	4	-3	5	5	-0.000688	0.000000
4	4	-3	6	5	0.000363	0.000000
4	4	-3	7	5	-0.000011	0.000011
4	4	-3	8	5	-0.000011	-0.000011
4	4	-3	1	6	-0.000002	0.000002
4	4	-3	2	6	0.000000	0.000000
4	4	-3	3	6	0.000004	0.000007
4	4	-3	4	6	-0.000007	-0.000004
4	4	-3	5	6	-0.000363	0.000000
4	4	-3	6	6	0.000238	0.000000
4	4	-3	7	6	0.000026	0.000007
4	4	-3	8	6	0.000026	-0.000008
4	4	-3	1	7	0.000049	-0.000005
4	4	-3	2	7	-0.000004	-0.000007
4	4	-3	3	7	0.000000	0.000000
4	4	-3	4	7	-0.000017	-0.000017
4	4	-3	5	7	0.000011	0.000011
4	4	-3	6	7	0.000026	-0.000007
4	4	-3	7	7	0.000189	0.000000
4	4	-3	8	7	-0.000076	-0.000041
4	4	-3	1	8	0.000005	-0.000049
4	4	-3	2	8	0.000007	0.000004
4	4	-3	3	8	0.000017	0.000017
4	4	-3	4	8	0.000000	0.000000
4	4	-3	5	8	0.000011	-0.000011
4	4	-3	6	8	0.000026	0.000008
4	4	-3	7	8	-0.000076	0.000041
4	4	-3	8	8	0.000191	0.000000
4	4	-2	1	1	-0.000633	0.000000
4	4	-2	2	1	0.000651	0.000000
4	4	-2	3	1	-0.000041	-0.000015
4	4	-2	4	1	-0.000041	0.000015
4	4	-2	5	1	0.000000	0.000000
4	4	-2	6	1	0.000011	0.000010
4	4	-2	7	1	-0.000100	0.000012
4	4	-2	8	1	0.000012	-0.000100
4	4	-2	1	2	-0.000651	0.000000
4	4	-2	2	2	0.000060	0.000000
4	4	-2	3	2	-0.000057	-0.000005
4	4	-2	4	2	-0.000057	0.000005
4	4	-2	5	2	0.000011	0.000010
4	4	-2	6	2	0.000000	0.000000
4	4	-2	7	2	-0.000015	-0.000011
4	4	-2	8	2	-0.000011	-0.000015
4	4	-2	1	3	0.000041	-0.000015
4	4	-2	2	3	-0.000057	0.000005
4	4	-2	3	3	0.000302	0.000000
4	4	-2	4	3	-0.000022	0.000068
4	4	-2	5	3	-0.000100	0.000012
4	4	-2	6	3	0.000015	0.000011
4	4	-2	7	3	0.000000	0.000000
4	4	-2	8	3	0.000031	-0.000031
4	4	-2	1	4	0.000041	0.000015
4	4	-2	2	4	-0.000057	-0.000005
4	4	-2	3	4	-0.000022	-0.000068
4	4	-2	4	4	0.000303	0.000000
4	4	-2	5	4	0.000012	-0.000100
4	4	-2	6	4	0.000011	0.000015
4	4	-2	7	4	-0.000031	0.000031
4	4	-2	8	4	0.000000	0.000000
4	4	-2	1	5	0.000000	0.000000
4	4	-2	2	5	-0.000011	0.000010
4	4	-2	3	5	0.000100	0.000012
4	4	-2	4	5	-0.000012	-0.000100
4	4	-2	5	5	-0.000633	0.000000
4	4	-2	6	5	0.000651	0.000000
4	4	-2	7	5	-0.000041	0.000015
4	4	-2	8	5	-0.000041	-0.000015
4	4	-2	1	6	-0.000011	0.000010
4	4	-2	2	6	0.000000	0.000000
4	4	-2	3	6	0.000015	-0.000011
4	4	-2	4	6	0.000011	-0.000015
4	4	-2	5	6	-0.000651	0.000000
4	4	-2	6	6	0.000060	0.000000
4	4	-2	7	6	-0.000057	0.000005
4	4	-2	8	6	-0.000057	-0.000005
4	4	-2	1	7	0.000100	0.000012
4	4	-2	2	7	-0.000015	0.000011
4	4	-2	3	7	0.000000	0.000000
4	4	-2	4	7	-0.000031	-0.000031
4	4	-2	5	7	0.000041	0.000015
4	4	-2	6	7	-0.000057	-0.000005
4	4	-2	7	7	0.000302	0.000000
4	4	-2	8	7	-0.000022	-0.000068
4	4	-2	1	8	-0.000012	-0.000100
4	4	-2	2	8	-0.000011	0.000015
4	4	-2	3	8	0.000031	0.000031
4	4	-2	4	8	0.000000	0.000000
4	4	-2	5	8	0.000041	-0.000015
4	4	-2	6	8	-0.000057	0.000005
4	4	-2	7	8	-0.000022	0.000068
4	4	-2	8	8	0.000303	0.000000
4	4	-1	1	1	-0.001578	0.000000
4	4	-1	2	1	0.000750	0.000000
4	4	-1	3	1	-0.000335	0.000032
4	4	-1	4	1	-0.000331	-0.000032
4	4	-1	5	1	0.000000	0.000000
4	4	-1	6	1	-0.000003	-0.000003
4	4	-1	7	1	-0.000101	0.000004
4	4	-1	8	1	0.000004	-0.000101
4	4	-1	1	2	-0.000750	0.000000
4	4	-1	2	2	-0.000322	0.000000
4	4	-1	3	2	-0.000099	0.000003
4	4	-1	4	2	-0.000098	-0.000003
4	4	-1	5	2	-0.000003	-0.000003
4	4	-1	6	2	0.000000	0.000000
4	4	-1	7	2	0.000007	-0.000019
4	4	-1	8	2	-0.000019	0.000007
4	4	-1	1	3	0.000335	0.000032
4	4	-1	2	3	-0.000099	-0.000003
4	4	-1	3	3	0.000884	0.000000
4	4	-1	4	3	0.000233	0.000077
4	4	-1	5	3	-0.000101	0.000004
4	4	-1	6	3	-0.000007	0.000019
4	4	-1	7	3	0.000000	0.000000
4	4	-1	8	3	0.000011	-0.000011
4	4	-1	1	4	0.000331	-0.000032
4	4	-1	2	4	-0.000098	0.000003
4	4	-1	3	4	0.000233	-0.000077
4	4	-1	4	4	0.000879	0.000000
4	4	-1	5	4	0.000004	-0.000101
4	4	-1	6	4	0.000019	-0.000007
4	4	-1	7	4	-0.000011	0.000011
4	4	-1	8	4	0.000000	0.000000
4	4	-1	1	5	0.000000	0.000000
4	4	-1	2	5	0.000003	-0.000003
4	4	-1	3	5	0.000101	0.000004
4	4	-1	4	5	-0.000004	-0.000101
4	4	-1	5	5	-0.001578	0.000000
4	4	-1	6	5	0.000750	0.000000
4	4	-1	7	5	-0.000335	-0.000032
4	4	-1	8	5	-0.000331	0.000032
4	4	-1	1	6	0.000003	-0.000003
4	4	-1	2	6	0.000000	0.000000
4	4	-1	3	6	-0.000007	-0.000019
4	4	-1	4	6	0.000019	0.000007
4	4	-1	5	6	-0.000750	0.000000
4	4	-1	6	6	-0.000322	0.000000
4	4	-1	7	6	-0.000099	-0.000003
4	4	-1	8	6	-0.000098	0.000003
4	4	-1	1	7	0.000101	0.000004
4	4	-1	2	7	0.000007	0.000019
4	4	-1	3	7	0.000000	0.000000
4	4	-1	4	7	-0.000011	-0.000011
4	4	-1	5	7	0.000335	-0.000032
4	4	-1	6	7	-0.000099	0.000003
4	4	-1	7	7	0.000884	0.000000
4	4	-1	8	7	0.000233	-0.000077
4	4	-1	1	8	-0.000004	-0.000101
4	4	-1	2	8	-0.000019	-0.000007
4	4	-1	3	8	0.000011	0.000011
4	4	-1	4	8	0.000000	0.000000
4	4	-1	5	8	0.000331	0.000032
4	4	-1	6	8	-0.000098	-0.000003
4	4	-1	7	8	0.000233	0.000077
4	4	-1	8	8	0.000879	0.000000
4	4	0	1	1	-0.002807	0.000000
4	4	0	2	1	-0.000027	0.000000
4	4	0	3	1	-0.000620	0.000027
4	4	0	4	1	-0.000614	-0.000028
4	4	0	5	1	0.000000	0.000000
4	4	0	6	1	-0.000010	-0.000010
4	4	0	7	1	-0.000006	0.000001
4	4	0	8	1	0.000001	-0.000007
4	4	0	1	2	0.000027	0.000000
4	4	0	2	2	-0.000538	0.000000
4	4	0	3	2	-0.000005	0.000000
4	4	0	4	2	-0.000004	0.000000
4	4	0	5	2	-0.000010	-0.000010
4	4	0	6	2	0.000000	0.000000
4	4	0	7	2	0.000008	0.000003
4	4	0	8	2	0.000002	0.000008
4	4	0	1	3	0.000620	0.000027
4	4	0	2	3	-0.000005	0.000000
4	4	0	3	3	0.001431	0.000000
4	4	0	4	3	0.000013	0.000177
4	4	0	5	3	-0.000006	0.000001
4	4	0	6	3	-0.000008	-0.000003
4	4	0	7	3	0.000000	0.000000
4	4	0	8	3	0.000001	-0.000001
4	4	0	1	4	0.000614	-0.000028
4	4	0	2	4	-0.000004	0.000000
4	4	0	3	4	0.000013	-0.000177
4	4	0	4	4	0.001433	0.000000
4	4	0	5	4	0.000001	-0.000007
4	4	0	6	4	-0.000002	-0.000008
4	4	0	7	4	-0.000001	0.000001
4	4	0	8	4	0.000000	0.000000
4	4	0	1	5	0.000000	0.000000
4	4	0	2	5	0.000010	-0.000010
4	4	0	3	5	0.000006	0.000001
4	4	0	4	5	-0.000001	-0.000007
4	4	0	5	5	-0.002807	0.000000
4	4	0	6	5	-0.000027	0.000000
4	4	0	7	5	-0.000620	-0.000027
4	4	0	8	5	-0.000614	0.000028
4	4	0	1	6	0.000010	-0.000010
4	4	0	2	6	0.000000	0.000000
4	4	0	3	6	-0.000008	0.000003
4	4	0	4	6	-0.000002	0.000008
4	4	0	5	6	0.000027	0.000000
4	4	0	6	6	-0.000538	0.000000
4	4	0	7	6	-0.000005	0.000000
4	4	0	8	6	-0.000004	0.000000
4	4	0	1	7	0.000006	0.000001
4	4	0	2	7	0.000008	-0.000003
4	4	0	3	7	0.000000	0.000000
4	4	0	4	7	-0.000001	-0.000001
4	4	0	5	7	0.000620	-0.000027
4	4	0	6	7	-0.000005	0.000000
4	4	0	7	7	0.001431	0.000000
4	4	0	8	7	0.000013	-0.000177
4	4	0	1	8	-0.000001	-0.000007
4	4	0	2	8	0.000002	-0.000008
4	4	0	3	8	0.000001	0.000001
4	4	0	4	8	0.000000	0.000000
4	4	0	5	8	0.000614	0.000028
4	4	0	6	8	-0.000004	0.000000
4	4	0	7	8	0.000013	0.000177
4	4	0	8	8	0.001433	0.000000
4	4	1	1	1	-0.001558	0.000000
4	4	1	2	1	-0.000819	0.000000
4	4	1	3	1	-0.000343	0.000035
4	4	1	4	1	-0.000339	-0.000036
4	4	1	5	1	0.000000	0.000000
4	4	1	6	1	-0.000004	-0.000003
4	4	1	7	1	0.000104	-0.000003
4	4	1	8	1	-0.000004	0.000104
4	4	1	1	2	0.000819	0.000000
4	4	1	2	2	-0.000278	0.000000
4	4	1	3	2	0.000147	-0.000006
4	4	1	4	2	0.000145	0.000006
4	4	1	5	2	-0.000004	-0.000003
4	4	1	6	2	0.000000	0.000000
4	4	1	7	2	-0.000005	-0.000019
4	4	1	8	2	-0.000019	-0.000005
4	4	1	1	3	0.000343	0.000035
4	4	1	2	3	0.000147	0.000006
4	4	1	3	3	0.000973	0.000000
4	4	1	4	3	0.000171	0.000090
4	4	1	5	3	0.000104	-0.000003
4	4	1	6	3	0.000005	0.000019
4	4	1	7	3	0.000000	0.000000
4	4	1	8	3	-0.000030	0.000031
4	4	1	1	4	0.000339	-0.000036
4	4	1	2	4	0.000145	-0.000006
4	4	1	3	4	0.000171	-0.000090
4	4	1	4	4	0.000969	0.000000
4	4	1	5	4	-0.000004	0.000104
4	4	1	6	4	0.000019	0.000005
4	4	1	7	4	0.000030	-0.000031
4	4	1	8	4	0.000000	0.000000
4	4	1	1	5	0.000000	0.000000
4	4	1	2	5	0.000004	-0.000003
4	4	1	3	5	-0.000104	-0.000003
4	4	1	4	5	0.000004	0.000104
4	4	1	5	5	-0.001558	0.000000
4	4	1	6	5	-0.000819	0.000000
4	4	1	7	5	-0.000343	-0.000035
4	4	1	8	5	-0.000339	0.000036
4	4	1	1	6	0.000004	-0.000003
4	4	1	2	6	0.000000	0.000000
4	4	1	3	6	0.000005	-0.000019
4	4	1	4	6	0.000019	-0.000005
4	4	1	5	6	0.000819	0.000000
4	4	1	6	6	-0.000278	0.000000
4	4	1	7	6	0.000147	0.000006
4	4	1	8	6	0.000145	-0.000006
4	4	1	1	7	-0.000104	-0.000003
4	4	1	2	7	-0.000005	0.000019
4	4	1	3	7	0.000000	0.000000
4	4	1	4	7	0.000030	0.000031
4	4	1	5	7	0.000343	-0.000035
4	4	1	6	7	0.000147	-0.000006
4	4	1	7	7	0.000973	0.000000
4	4	1	8	7	0.000171	-0.000090
4	4	1	1	8	0.000004	0.000104
4	4	1	2	8	-0.000019	0.000005
4	4	1	3	8	-0.000030	-0.000031
4	4	1	4	8	0.000000	0.000000
4	4	1	5	8	0.000339	0.000036
4	4	1	6	8	0.000145	0.000006
4	4	1	7	8	0.000171	0.000090
4	4	1	8	8	0.000969	0.000000
4	4	2	1	1	-0.000627	0.000000
4	4	2	2	1	-0.000688	0.000000
4	4	2	3	1	-0.000039	-0.000005
4	4	2	4	1	-0.000038	0.000005
4	4	2	5	1	0.000000	0.000000
4	4	2	6	1	0.000005	0.000005
4	4	2	7	1	0.000102	-0.000012
4	4	2	8	1	-0.000012	0.000102
4	4	2	1	2	0.000688	0.000000
4	4	2	2	2	0.000099	0.000000
4	4	2	3	2	0.000062	0.000004
4	4	2	4	2	0.000062	-0.000004
4	4	2	5	2	0.000005	0.000005
4	4	2	6	2	0.000000	0.000000
4	4	2	7	2	-0.000023	-0.000007
4	4	2	8	2	-0.000008	-0.000023
4	4	2	1	3	0.000039	-0.000005
4	4	2	2	3	0.000062	-0.000004
4	4	2	3	3	0.000270	0.000000
4	4	2	4	3	-0.000011	0.000058
4	4	2	5	3	0.000102	-0.000012
4	4	2	6	3	0.000023	0.000007
4	4	2	7	3	0.000000	0.000000
4	4	2	8	3	-0.000026	0.000026
4	4	2	1	4	0.000038	0.000005
4	4	2	2	4	0.000062	0.000004
4	4	2	3	4	-0.000011	-0.000058
4	4	2	4	4	0.000270	0.000000
4	4	2	5	4	-0.000012	0.000102
4	4	2	6	4	0.000008	0.000023
4	4	2	7	4	0.000026	-0.000026
4	4	2	8	4	0.000000	0.000000
4	4	2	1	5	0.000000	0.000000
4	4	2	2	5	-0.000005	0.000005
4	4	2	3	5	-0.000102	-0.000012
4	4	2	4	5	0.000012	0.000102
4	4	2	5	5	-0.000627	0.000000
4	4	2	6	5	-0.000688	0.000000
4	4	2	7	5	-0.000039	0.000005
4	4	2	8	5	-0.000038	-0.000005
4	4	2	1	6	-0.000005	0.000005
4	4	2	2	6	0.000000	0.000000
4	4	2	3	6	0.000023	-0.000007
4	4	2	4	6	0.000008	-0.000023
4	4	2	5	6	0.000688	0.000000
4	4	2	6	6	0.000099	0.000000
4	4	2	7	6	0.000062	-0.000004
4	4	2	8	6	0.000062	0.000004
4	4	2	1	7	-0.000102	-0.000012
4	4	2	2	7	-0.000023	0.000007
4	4	2	3	7	0.000000	0.000000
4	4	2	4	7	0.000026	0.000026
4	4	2	5	7	0.000039	0.000005
4	4	2	6	7	0.000062	0.000004
4	4	2	7	7	0.000270	0.000000
4	4	2	8	7	-0.000011	-0.000058
4	4	2	1	8	0.000012	0.000102
4	4	2	2	8	-0.000008	0.000023
4	4	2	3	8	-0.000026	-0.000026
4	4	2	4	8	0.000000	0.000000
4	4	2	5	8	0.000038	-0.000005
4	4	2	6	8	0.000062	-0.000004
4	4	2	7	8	-0.000011	0.000058
4	4	2	8	8	0.000270	0.000000
4	4	3	1	1	-0.000683	0.000000
4	4	3	2	1	-0.000376	0.000000
4	4	3	3	1	-0.000012	0.000000
4	4	3	4	1	-0.000012	0.000000
4	4	3	5	1	0.000000	0.000000
4	4	3	6	1	0.000002	0.000002
4	4	3	7	1	0.000047	0.000004
4	4	3	8	1	0.000004	0.000046
4	4	3	1	2	0.000376	0.000000
4	4	3	2	2	0.000247	0.000000
4	4	3	3	2	-0.000052	0.000009
4	4	3	4	2	-0.000051	-0.000009
4	4	3	5	2	0.000002	0.000002
4	4	3	6	2	0.000000	0.000000
4	4	3	7	2	-0.000007	0.000007
4	4	3	8	2	0.000007	-0.000007
4	4	3	1	3	0.000012	0.000000
4	4	3	2	3	-0.000052	-0.000009
4	4	3	3	3	0.000234	0.000000
4	4	3	4	3	-0.000089	0.000047
4	4	3	5	3	0.000047	0.000004
4	4	3	6	3	0.000007	-0.000007
4	4	3	7	3	0.000000	0.000000
4	4	3	8	3	-0.000016	0.000017
4	4	3	1	4	0.000012	0.000000
4	4	3	2	4	-0.000051	0.000009
4	4	3	3	4	-0.000089	-0.000047
4	4	3	4	4	0.000237	0.000000
4	4	3	5	4	0.000004	0.000046
4	4	3	6	4	-0.000007	0.000007
4	4	3	7	4	0.000016	-0.000017
4	4	3	8	4	0.000000	0.000000
4	4	3	1	5	0.000000	0.000000
4	4	3	2	5	-0.000002	0.000002
4	4	3	3	5	-0.000047	0.000004
4	4	3	4	5	-0.000004	0.000046
4	4	3	5	5	-0.000683	0.000000
4	4	3	6	5	-0.000376	0.000000
4	4	3	7	5	-0.000012	0.000000
4	4	3	8	5	-0.000012	0.000000
4	4	3	1	6	-0.000002	0.000002
4	4	3	2	6	0.000000	0.000000
4	4	3	3	6	0.000007	0.000007
4	4	3	4	6	-0.000007	-0.000007
4	4	3	5	6	0.000376	0.000000
4	4	3	6	6	0.000247	0.000000
4	4	3	7	6	-0.000052	-0.000009
4	4	3	8	6	-0.000051	0.000009
4	4	3	1	7	-0.000047	0.000004
4	4	3	2	7	-0.000007	-0.000007
4	4	3	3	7	0.000000	0.000000
4	4	3	4	7	0.000016	0.000017
4	4	3	5	7	0.000012	0.000000
4	4	3	6	7	-0.000052	0.000009
4	4	3	7	7	0.000234	0.000000
4	4	3	8	7	-0.000089	-0.000047
4	4	3	1	8	-0.000004	0.000046
4	4	3	2	8	0.000007	0.000007
4	4	3	3	8	-0.000016	-0.000017
4	4	3	4	8	0.000000	0.000000
4	4	3	5	8	0.000012	0.000000
4	4	3	6	8	-0.000051	-0.000009
4	4	3	7	8	-0.000089	0.000047
4	4	3	8	8	0.000237	0.000000
4	4	4	1	1	-0.001016	0.000000
4	4	4	2	1	-0.000135	0.000000
4	4	4	3	1	-0.000138	0.000017
4	4	4	4	1	-0.000137	-0.000017
4	4	4	5	1	0.000000	0.000000
4	4	4	6	1	-0.000017	-0.000017
4	4	4	7	1	0.000017	0.000000
4	4	4	8	1	0.000000	0.000017
4	4	4	1	2	0.000135	0.000000
4	4	4	2	2	0.000246	0.000000
4	4	4	3	2	0.000020	-0.000006
4	4	4	4	2	0.000020	0.000006
4	4	4	5	2	-0.000017	-0.000017
4	4	4	6	2	0.000000	0.000000
4	4	4	7	2	0.000026	-0.000006
4	4	4	8	2	-0.000006	0.000026
4	4	4	1	3	0.000138	0.000017
4	4	4	2	3	0.000020	0.000006
4	4	4	3	3	0.000246	0.000000
4	4	4	4	3	0.000020	-0.000026
4	4	4	5	3	0.000017	0.000000
4	4	4	6	3	-0.000026	0.000006
4	4	4	7	3	0.000000	0.000000
4	4	4	8	3	0.000006	-0.000006
4	4	4	1	4	0.000137	-0.000017
4	4	4	2	4	0.000020	-0.000006
4	4	4	3	4	0.000020	0.000026
4	4	4	4	4	0.000246	0.000000
4	4	4	5	4	0.000000	0.000017
4	4	4	6	4	0.000006	-0.000026
4	4	4	7	4	-0.000006	0.000006
4	4	4	8	4	0.000000	0.000000
4	4	4	1	5	0.000000	0.000000
4	4	4	2	5	0.000017	-0.000017
4	4	4	3	5	-0.000017	0.000000
4	4	4	4	5	0.000000	0.000017
4	4	4	5	5	-0.001016	0.000000
4	4	4	6	5	-0.000135	0.000000
4	4	4	7	5	-0.000138	-0.000017
4	4	4	8	5	-0.000137	0.000017
4	4	4	1	6	0.000017	-0.000017
4	4	4	2	6	0.000000	0.000000
4	4	4	3	6	-0.000026	-0.000006
4	4	4	4	6	0.000006	0.000026
4	4	4	5	6	0.000135	0.000000
4	4	4	6	6	0.000246	0.000000
4	4	4	7	6	0.000020	0.000006
4	4	4	8	6	0.000020	-0.000006
4	4	4	1	7	-0.000017	0.000000
4	4	4	2	7	0.000026	0.000006
4	4	4	3	7	0.000000	0.000000
4	4	4	4	7	-0.000006	-0.000006
4	4	4	5	7	0.000138	-0.000017
4	4	4	6	7	0.000020	-0.000006
4	4	4	7	7	0.000246	0.000000
4	4	4	8	7	0.000020	0.000026
4	4	4	1	8	0.000000	0.000017
4	4	4	2	8	-0.000006	-0.000026
4	4	4	3	8	0.000006	0.000006
4	4	4	4	8	0.000000	0.000000
4	4	4	5	8	0.000137	0.000017
4	4	4	6	8	0.000020	0.000006
4	4	4	7	8	0.000020	-0.000026
4	4	4	8	8	0.000246	0.000000
