    4    4    1    1
  0.5258519E+02  0.4266220E-09  0.2465189E-09  0.2000000E-08  0.5000000E-15
   1.0000000000000000E-004
  CAR 
 C                                       
     16     15     32

  0.3742002E-15  0.3742002E-15  0.1262379E-14  0.3125000E-01
    1      -22.278845   1.000000
    2      -17.018767   1.000000
    3      -15.990172   1.000000
    4      -10.374204   1.000000
    5       -9.165373   1.000000
    6       -5.770020   1.000000
    7       -5.769148   1.000000
    8       -5.096830   1.000000
    9       -1.059413   0.000000
   10        0.515675   0.000000
   11        1.302929   0.000000
   12        1.617448   0.000000
   13        2.582311   0.000000
   14        2.979145   0.000000
   15        4.634390   0.000000
   16        4.675467   0.000000
   17        5.312000   0.000000
   18        5.607528   0.000000
   19        5.630547   0.000000
   20        7.640463   0.000000
   21        8.389581   0.000000
   22        8.425402   0.000000
   23        8.541700   0.000000
   24        8.735235   0.000000
   25        9.229080   0.000000
   26        9.428594   0.000000
   27        9.799939   0.000000
   28        9.848867   0.000000
   29        9.858467   0.000000
   30       10.573133   0.000000
   31       10.756006   0.000000
   32       11.086142   0.000000

  0.2500000E+00  0.3742002E-15  0.1262379E-14  0.6250000E-01
    1      -21.909238   1.000000
    2      -19.018979   1.000000
    3      -13.449146   1.000000
    4       -9.933306   1.000000
    5       -8.802196   1.000000
    6       -7.152325   1.000000
    7       -6.656105   1.000000
    8       -6.477010   1.000000
    9        1.018147   0.000000
   10        1.062060   0.000000
   11        1.811646   0.000000
   12        2.132433   0.000000
   13        3.092253   0.000000
   14        3.488115   0.000000
   15        4.771237   0.000000
   16        5.082085   0.000000
   17        5.180307   0.000000
   18        5.636283   0.000000
   19        5.870335   0.000000
   20        5.874788   0.000000
   21        6.253977   0.000000
   22        7.120588   0.000000
   23        7.162717   0.000000
   24        7.507289   0.000000
   25        7.570803   0.000000
   26        8.137404   0.000000
   27        8.934319   0.000000
   28        9.180385   0.000000
   29        9.859395   0.000000
   30       10.526251   0.000000
   31       11.847011   0.000000
   32       11.899430   0.000000

  0.5000000E+00  0.3742002E-15  0.1262379E-14  0.3125000E-01
    1      -20.810019   1.000000
    2      -20.810019   1.000000
    3      -10.165523   1.000000
    4      -10.165523   1.000000
    5       -8.641376   1.000000
    6       -8.641376   1.000000
    7       -7.792159   1.000000
    8       -7.792159   1.000000
    9        2.522954   0.000000
   10        2.522954   0.000000
   11        3.320101   0.000000
   12        3.320101   0.000000
   13        3.677081   0.000000
   14        3.677081   0.000000
   15        4.469546   0.000000
   16        4.469546   0.000000
   17        4.702513   0.000000
   18        4.702513   0.000000
   19        4.993016   0.000000
   20        4.993016   0.000000
   21        5.339096   0.000000
   22        5.339096   0.000000
   23        6.697892   0.000000
   24        6.697892   0.000000
   25        7.347818   0.000000
   26        7.347818   0.000000
   27        9.608580   0.000000
   28        9.608580   0.000000
   29       10.440490   0.000000
   30       10.440490   0.000000
   31       10.735464   0.000000
   32       10.735464   0.000000

  0.3742002E-15  0.1250000E+00  0.1262379E-14  0.6250000E-01
    1      -22.001974   1.000000
    2      -16.781264   1.000000
    3      -15.760334   1.000000
    4      -10.276323   1.000000
    5      -10.043354   1.000000
    6       -6.795635   1.000000
    7       -6.360801   1.000000
    8       -4.759787   1.000000
    9       -1.166373   0.000000
   10        0.891882   0.000000
   11        1.683982   0.000000
   12        2.003031   0.000000
   13        2.964262   0.000000
   14        3.360270   0.000000
   15        5.053798   0.000000
   16        5.644505   0.000000
   17        5.853459   0.000000
   18        6.174430   0.000000
   19        6.656193   0.000000
   20        7.804075   0.000000
   21        8.011828   0.000000
   22        8.711304   0.000000
   23        8.807425   0.000000
   24        8.885938   0.000000
   25        9.123715   0.000000
   26        9.810424   0.000000
   27       10.229968   0.000000
   28       10.241368   0.000000
   29       10.348239   0.000000
   30       10.714693   0.000000
   31       11.139515   0.000000
   32       11.432999   0.000000

  0.2500000E+00  0.1250000E+00  0.1262379E-14  0.1250000E+00
    1      -21.633538   1.000000
    2      -18.758303   1.000000
    3      -13.291510   1.000000
    4       -9.890051   1.000000
    5       -9.606220   1.000000
    6       -7.935627   1.000000
    7       -7.014752   1.000000
    8       -6.347861   1.000000
    9        0.889239   0.000000
   10        1.394430   0.000000
   11        2.191858   0.000000
   12        2.518058   0.000000
   13        3.473489   0.000000
   14        3.869448   0.000000
   15        5.384795   0.000000
   16        5.556786   0.000000
   17        5.895453   0.000000
   18        6.210054   0.000000
   19        6.243553   0.000000
   20        6.372125   0.000000
   21        6.642786   0.000000
   22        6.695138   0.000000
   23        7.507158   0.000000
   24        7.710165   0.000000
   25        7.950837   0.000000
   26        8.504817   0.000000
   27        9.313626   0.000000
   28        9.449681   0.000000
   29       10.227815   0.000000
   30       11.215633   0.000000
   31       11.655094   0.000000
   32       11.673674   0.000000

  0.5000000E+00  0.1250000E+00  0.1262379E-14  0.6250000E-01
    1      -20.538598   1.000000
    2      -20.538598   1.000000
    3      -10.264101   1.000000
    4      -10.264101   1.000000
    5       -8.735197   1.000000
    6       -8.735197   1.000000
    7       -8.324140   1.000000
    8       -8.324140   1.000000
    9        2.900050   0.000000
   10        2.900050   0.000000
   11        3.700049   0.000000
   12        3.700049   0.000000
   13        4.063140   0.000000
   14        4.063140   0.000000
   15        4.066569   0.000000
   16        4.066569   0.000000
   17        4.997755   0.000000
   18        4.997755   0.000000
   19        5.396459   0.000000
   20        5.396459   0.000000
   21        6.706729   0.000000
   22        6.706729   0.000000
   23        7.054633   0.000000
   24        7.054633   0.000000
   25        7.734511   0.000000
   26        7.734511   0.000000
   27        9.126838   0.000000
   28        9.126838   0.000000
   29        9.934973   0.000000
   30        9.934973   0.000000
   31       10.820811   0.000000
   32       10.820811   0.000000

  0.3742002E-15  0.2500000E+00  0.1262379E-14  0.6250000E-01
    1      -21.176781   1.000000
    2      -16.070532   1.000000
    3      -15.204868   1.000000
    4      -12.489269   1.000000
    5       -9.068102   1.000000
    6       -8.961762   1.000000
    7       -7.885785   1.000000
    8       -3.756483   1.000000
    9       -1.793460   0.000000
   10        2.020450   0.000000
   11        2.823240   0.000000
   12        3.159922   0.000000
   13        4.106904   0.000000
   14        4.504455   0.000000
   15        5.501493   0.000000
   16        6.181794   0.000000
   17        6.461471   0.000000
   18        6.881177   0.000000
   19        8.174564   0.000000
   20        8.183513   0.000000
   21        9.107917   0.000000
   22        9.385308   0.000000
   23        9.579835   0.000000
   24        9.905583   0.000000
   25        9.941913   0.000000
   26       10.954383   0.000000
   27       11.361883   0.000000
   28       11.385376   0.000000
   29       11.499985   0.000000
   30       12.289148   0.000000
   31       12.352406   0.000000
   32       12.538163   0.000000

  0.2500000E+00  0.2500000E+00  0.1262379E-14  0.1250000E+00
    1      -20.811928   1.000000
    2      -17.986688   1.000000
    3      -13.278702   1.000000
    4      -11.700325   1.000000
    5      -10.172324   1.000000
    6       -8.644239   1.000000
    7       -7.783179   1.000000
    8       -5.481889   1.000000
    9        0.083002   0.000000
   10        2.520326   0.000000
   11        3.317053   0.000000
   12        3.674464   0.000000
   13        4.465212   0.000000
   14        4.701666   0.000000
   15        4.991955   0.000000
   16        5.358531   0.000000
   17        6.493041   0.000000
   18        6.695649   0.000000
   19        7.161162   0.000000
   20        7.345409   0.000000
   21        7.791942   0.000000
   22        8.480774   0.000000
   23        9.051663   0.000000
   24        9.549351   0.000000
   25        9.606307   0.000000
   26        9.891520   0.000000
   27        9.920394   0.000000
   28       10.437888   0.000000
   29       10.742043   0.000000
   30       11.353121   0.000000
   31       11.417831   0.000000
   32       12.456725   0.000000

  0.5000000E+00  0.2500000E+00  0.1262379E-14  0.6250000E-01
    1      -19.730704   1.000000
    2      -19.730704   1.000000
    3      -11.762390   1.000000
    4      -11.762390   1.000000
    5       -9.398703   1.000000
    6       -9.398703   1.000000
    7       -7.404039   1.000000
    8       -7.404039   1.000000
    9        2.472692   0.000000
   10        2.472692   0.000000
   11        4.021994   0.000000
   12        4.021994   0.000000
   13        4.843111   0.000000
   14        4.843111   0.000000
   15        5.219364   0.000000
   16        5.219364   0.000000
   17        6.131419   0.000000
   18        6.131419   0.000000
   19        6.476009   0.000000
   20        6.476009   0.000000
   21        6.665237   0.000000
   22        6.665237   0.000000
   23        8.156414   0.000000
   24        8.156414   0.000000
   25        8.854056   0.000000
   26        8.854056   0.000000
   27       10.560747   0.000000
   28       10.560747   0.000000
   29       10.912140   0.000000
   30       10.912140   0.000000
   31       11.940209   0.000000
   32       11.940209   0.000000

  0.3742002E-15  0.3750000E+00  0.1262379E-14  0.6250000E-01
    1      -19.822823   1.000000
    2      -15.903814   1.000000
    3      -14.893663   1.000000
    4      -13.135067   1.000000
    5      -11.248271   1.000000
    6       -9.817816   1.000000
    7       -7.502943   1.000000
    8       -3.367657   1.000000
    9       -2.119539   0.000000
   10        2.726696   0.000000
   11        3.895079   0.000000
   12        4.701535   0.000000
   13        5.087799   0.000000
   14        5.994224   0.000000
   15        6.409303   0.000000
   16        7.795929   0.000000
   17        7.938117   0.000000
   18        8.016346   0.000000
   19        8.745534   0.000000
   20        9.155053   0.000000
   21        9.531963   0.000000
   22       10.323784   0.000000
   23       10.728627   0.000000
   24       10.756014   0.000000
   25       11.081735   0.000000
   26       11.241044   0.000000
   27       11.810246   0.000000
   28       12.242322   0.000000
   29       12.317014   0.000000
   30       12.853312   0.000000
   31       12.987973   0.000000
   32       13.118342   0.000000

  0.2500000E+00  0.3750000E+00  0.1262379E-14  0.1250000E+00
    1      -19.465348   1.000000
    2      -16.809807   1.000000
    3      -15.152117   1.000000
    4      -12.616076   1.000000
    5      -11.325419   1.000000
    6       -8.891577   1.000000
    7       -7.123433   1.000000
    8       -4.516371   1.000000
    9       -1.183854   0.000000
   10        1.847900   0.000000
   11        4.384008   0.000000
   12        5.234689   0.000000
   13        5.374296   0.000000
   14        5.610301   0.000000
   15        6.519883   0.000000
   16        6.931725   0.000000
   17        7.787290   0.000000
   18        8.310535   0.000000
   19        8.524202   0.000000
   20        8.547734   0.000000
   21        9.226818   0.000000
   22        9.713892   0.000000
   23        9.895843   0.000000
   24       10.062285   0.000000
   25       10.825767   0.000000
   26       10.953229   0.000000
   27       11.321410   0.000000
   28       11.743875   0.000000
   29       11.794780   0.000000
   30       12.234040   0.000000
   31       12.409959   0.000000
   32       12.667392   0.000000

  0.5000000E+00  0.3750000E+00  0.1262379E-14  0.6250000E-01
    1      -18.416242   1.000000
    2      -18.416242   1.000000
    3      -14.184485   1.000000
    4      -14.184485   1.000000
    5       -9.249977   1.000000
    6       -9.249977   1.000000
    7       -6.046565   1.000000
    8       -6.046565   1.000000
    9        0.252924   0.000000
   10        0.252924   0.000000
   11        5.172053   0.000000
   12        5.172053   0.000000
   13        5.905185   0.000000
   14        5.905185   0.000000
   15        6.732616   0.000000
   16        6.732616   0.000000
   17        7.148276   0.000000
   18        7.148276   0.000000
   19        8.027806   0.000000
   20        8.027806   0.000000
   21        8.451493   0.000000
   22        8.451493   0.000000
   23        9.989097   0.000000
   24        9.989097   0.000000
   25       10.723217   0.000000
   26       10.723217   0.000000
   27       11.454612   0.000000
   28       11.454612   0.000000
   29       12.048510   0.000000
   30       12.048510   0.000000
   31       12.973939   0.000000
   32       12.973955   0.000000

  0.3742002E-15  0.5000000E+00  0.1262379E-14  0.3125000E-01
    1      -17.992721   1.000000
    2      -17.992721   1.000000
    3      -13.269881   1.000000
    4      -13.269881   1.000000
    5      -11.703686   1.000000
    6      -11.703686   1.000000
    7       -5.488887   1.000000
    8       -5.488887   1.000000
    9        0.088584   0.000000
   10        0.088584   0.000000
   11        6.484932   0.000000
   12        6.484932   0.000000
   13        7.153994   0.000000
   14        7.153994   0.000000
   15        7.784042   0.000000
   16        7.784042   0.000000
   17        8.473658   0.000000
   18        8.473658   0.000000
   19        9.043726   0.000000
   20        9.043726   0.000000
   21        9.556575   0.000000
   22        9.556575   0.000000
   23        9.886789   0.000000
   24        9.886789   0.000000
   25        9.948855   0.000000
   26        9.948855   0.000000
   27       11.345777   0.000000
   28       11.345777   0.000000
   29       11.412839   0.000000
   30       11.412839   0.000000
   31       13.977472   0.000000
   32       13.977472   0.000000

  0.2500000E+00  0.5000000E+00  0.1262379E-14  0.6250000E-01
    1      -17.665035   1.000000
    2      -17.665035   1.000000
    3      -14.759421   1.000000
    4      -14.759421   1.000000
    5      -10.169849   1.000000
    6      -10.169849   1.000000
    7       -5.314395   1.000000
    8       -5.314395   1.000000
    9       -0.498777   0.000000
   10       -0.498777   0.000000
   11        6.246386   0.000000
   12        6.246386   0.000000
   13        6.997652   0.000000
   14        6.997652   0.000000
   15        7.766301   0.000000
   16        7.766301   0.000000
   17        8.300320   0.000000
   18        8.300320   0.000000
   19        9.070824   0.000000
   20        9.070824   0.000000
   21        9.579185   0.000000
   22        9.579185   0.000000
   23       10.576377   0.000000
   24       10.576377   0.000000
   25       10.659529   0.000000
   26       10.659529   0.000000
   27       11.584737   0.000000
   28       11.584737   0.000000
   29       11.826116   0.000000
   30       11.826116   0.000000
   31       12.391682   0.000000
   32       12.391682   0.000000

  0.5000000E+00  0.5000000E+00  0.1262379E-14  0.3125000E-01
    1      -17.032025   1.000000
    2      -17.032025   1.000000
    3      -15.987327   1.000000
    4      -15.987327   1.000000
    5       -9.152529   1.000000
    6       -9.152529   1.000000
    7       -5.109133   1.000000
    8       -5.109133   1.000000
    9       -1.056423   0.000000
   10       -1.056423   0.000000
   11        4.664969   0.000000
   12        4.664969   0.000000
   13        8.378461   0.000000
   14        8.378461   0.000000
   15        8.532708   0.000000
   16        8.532708   0.000000
   17        9.222530   0.000000
   18        9.222530   0.000000
   19        9.418107   0.000000
   20        9.418107   0.000000
   21        9.838473   0.000000
   22        9.838473   0.000000
   23        9.847971   0.000000
   24        9.847971   0.000000
   25       10.564871   0.000000
   26       10.564871   0.000000
   27       10.745448   0.000000
   28       10.745448   0.000000
   29       11.075537   0.000000
   30       11.075537   0.000000
   31       11.112343   0.000000
   32       11.112343   0.000000
