Automatically generated mesh
      15
Reciprocal lattice
    0.00000000000000    0.00000000000000    0.00000000000000             1
    0.25000000000000    0.00000000000000    0.00000000000000             2
    0.50000000000000    0.00000000000000    0.00000000000000             1
    0.00000000000000    0.12500000000000    0.00000000000000             2
    0.25000000000000    0.12500000000000    0.00000000000000             4
    0.50000000000000    0.12500000000000    0.00000000000000             2
    0.00000000000000    0.25000000000000    0.00000000000000             2
    0.25000000000000    0.25000000000000    0.00000000000000             4
    0.50000000000000    0.25000000000000    0.00000000000000             2
    0.00000000000000    0.37500000000000    0.00000000000000             2
    0.25000000000000    0.37500000000000    0.00000000000000             4
    0.50000000000000    0.37500000000000    0.00000000000000             2
    0.00000000000000    0.50000000000000    0.00000000000000             1
    0.25000000000000    0.50000000000000    0.00000000000000             2
    0.50000000000000    0.50000000000000    0.00000000000000             1
Tetrahedra
        96    0.00520833333333
         2         1         1         2         5
         2         1         1         4         5
         2         1         4         4         5
         2         1         2         2         5
         2         1         2         5         5
         2         1         4         5         5
         2         2         2         3         6
         2         2         2         5         6
         2         2         5         5         6
         2         2         3         3         6
         2         2         3         6         6
         2         2         5         6         6
         2         2         3         3         5
         2         3         3         5         6
         2         3         5         6         6
         2         2         2         3         5
         2         2         3         5         5
         2         3         5         5         6
         2         1         2         2         4
         2         2         2         4         5
         2         2         4         5         5
         2         1         1         2         4
         2         1         2         4         4
         2         2         4         4         5
         2         4         4         5         8
         2         4         4         7         8
         2         4         7         7         8
         2         4         5         5         8
         2         4         5         8         8
         2         4         7         8         8
         2         5         5         6         9
         2         5         5         8         9
         2         5         8         8         9
         2         5         6         6         9
         2         5         6         9         9
         2         5         8         9         9
         2         5         6         6         8
         2         6         6         8         9
         2         6         8         9         9
         2         5         5         6         8
         2         5         6         8         8
         2         6         8         8         9
         2         4         5         5         7
         2         5         5         7         8
         2         5         7         8         8
         2         4         4         5         7
         2         4         5         7         7
         2         5         7         7         8
         2         7         7         8        11
         2         7         7        10        11
         2         7        10        10        11
         2         7         8         8        11
         2         7         8        11        11
         2         7        10        11        11
         2         8         8         9        12
         2         8         8        11        12
         2         8        11        11        12
         2         8         9         9        12
         2         8         9        12        12
         2         8        11        12        12
         2         8         9         9        11
         2         9         9        11        12
         2         9        11        12        12
         2         8         8         9        11
         2         8         9        11        11
         2         9        11        11        12
         2         7         8         8        10
         2         8         8        10        11
         2         8        10        11        11
         2         7         7         8        10
         2         7         8        10        10
         2         8        10        10        11
         2        10        10        11        14
         2        10        10        13        14
         2        10        13        13        14
         2        10        11        11        14
         2        10        11        14        14
         2        10        13        14        14
         2        11        11        12        15
         2        11        11        14        15
         2        11        14        14        15
         2        11        12        12        15
         2        11        12        15        15
         2        11        14        15        15
         2        11        12        12        14
         2        12        12        14        15
         2        12        14        15        15
         2        11        11        12        14
         2        11        12        14        14
         2        12        14        14        15
         2        10        11        11        13
         2        11        11        13        14
         2        11        13        14        14
         2        10        10        11        13
         2        10        11        13        13
         2        11        13        13        14
