 running on    2 total cores
 distrk:  each k-point on    2 cores,    1 groups
 distr:  one band on    1 cores,    2 groups
 using from now: INCAR     
 vasp.5.4.4.18Apr17-6-g9f103f2a35 (build May 21 2018 15:16:00) complex           
 POSCAR found type information on POSCAR  C 
 POSCAR found :  1 types and       4 ions
 scaLAPACK will be used
 LDA part: xc-table for Pade appr. of Perdew
 POSCAR, INCAR and KPOINTS ok, starting setup
 FFT: planning ...
 WAVECAR not read
 entering main loop
       N       E                     dE             d eps       ncg     rms          rms(c)
DAV:   1     0.724508730537E+02    0.72451E+02   -0.46475E+03  1000   0.290E+02
DAV:   2    -0.317615654921E+02   -0.10421E+03   -0.96010E+02  1352   0.100E+02
DAV:   3    -0.393444196631E+02   -0.75829E+01   -0.74413E+01  1280   0.260E+01
DAV:   4    -0.394566342075E+02   -0.11221E+00   -0.11203E+00  1248   0.399E+00
DAV:   5    -0.394588535658E+02   -0.22194E-02   -0.22191E-02  1256   0.480E-01    0.902E+00
DAV:   6    -0.376379317671E+02    0.18209E+01   -0.98749E-01  1176   0.334E+00    0.532E+00
DAV:   7    -0.369294953703E+02    0.70844E+00   -0.15302E+00  1200   0.410E+00    0.143E+00
DAV:   8    -0.369162627177E+02    0.13233E-01   -0.73452E-02  1200   0.761E-01    0.320E-01
DAV:   9    -0.369158347775E+02    0.42794E-03   -0.16463E-03  1176   0.138E-01    0.157E-01
DAV:  10    -0.369108690776E+02    0.49657E-02   -0.29201E-03  1128   0.161E-01    0.156E-01
DAV:  11    -0.369111998203E+02   -0.33074E-03   -0.42591E-04  1144   0.551E-02    0.611E-02
DAV:  12    -0.369124489298E+02   -0.12491E-02   -0.25812E-04  1064   0.483E-02    0.574E-02
DAV:  13    -0.369131236627E+02   -0.67473E-03   -0.43998E-05  1072   0.239E-02    0.306E-02
DAV:  14    -0.369145264887E+02   -0.14028E-02   -0.14344E-04  1032   0.245E-02    0.145E-02
DAV:  15    -0.369145898716E+02   -0.63383E-04   -0.90713E-07  1120   0.344E-03    0.524E-03
DAV:  16    -0.369146770009E+02   -0.87129E-04   -0.37964E-06   976   0.483E-03    0.331E-03
DAV:  17    -0.369146895828E+02   -0.12582E-04   -0.19754E-07   952   0.144E-03    0.680E-04
DAV:  18    -0.369146953802E+02   -0.57974E-05   -0.18199E-07   912   0.122E-03    0.598E-04
DAV:  19    -0.369147015624E+02   -0.61822E-05   -0.34903E-08   928   0.635E-04    0.638E-04
DAV:  20    -0.369147020721E+02   -0.50976E-06   -0.20800E-09  1016   0.198E-04
   1 F= -.36914702E+02 E0= -.36914702E+02  d E =0.000000E+00
 writing wavefunctions
