 vasp.5.4.4.18Apr17-6-g9f103f2a35 (build May 21 2018 15:16:00) complex           
 executed on GUN_wannier90_optcel date 2019.03.25  10:12:26
 running on    2 total cores
 distrk:  each k-point on    2 cores,    1 groups
 distr:  one band on NCORES_PER_BAND=   1 cores,    2 groups


--------------------------------------------------------------------------------------------------------


 INCAR:
 POTCAR:    PAW_PBE C 08Apr2002                   
 POTCAR:    PAW_PBE C 08Apr2002                   
  local pseudopotential read in
  partial core-charges read in
  partial kinetic energy density read in
  atomic valenz-charges read in
  non local Contribution for L=           0  read in
    real space projection operators read in
  non local Contribution for L=           0  read in
    real space projection operators read in
  non local Contribution for L=           1  read in
    real space projection operators read in
  non local Contribution for L=           1  read in
    real space projection operators read in
    PAW grid and wavefunctions read in

   number of l-projection  operators is LMAX  =           4
   number of lm-projection operators is LMMAX =           8

  PAW_PBE C 08Apr2002                   :
 energy of atom  1       EATOM= -147.1560
 kinetic energy error for atom=    0.0288 (will be added to EATOM!!)


 POSCAR: graphene d=a0                           
  positions in direct lattice
  velocities in cartesian coordinates
 exchange correlation table for  LEXCH =        8
   RHO(1)=    0.500       N(1)  =     2000
   RHO(2)=  100.500       N(2)  =     4000



--------------------------------------------------------------------------------------------------------


 ion  position               nearest neighbor table
   1  0.333  0.000  0.500-   2 1.42   3 1.42   3 1.42
   2  0.667  0.000  0.500-   1 1.42   4 1.42   4 1.42
   3  0.167  0.500  0.500-   4 1.42   1 1.42   1 1.42
   4  0.833  0.500  0.500-   3 1.42   2 1.42   2 1.42

  LATTYP: Found a simple orthorhombic cell.
 ALAT       =     2.4651886975
 B/A-ratio  =     1.7305857395
 C/A-ratio  =     8.1129692100
  
  Lattice vectors:
  
 A1 = (   0.0000000000,  -2.4651886975,   0.0000000000)
 A2 = (  -4.2662204051,   0.0000000000,   0.0000000000)
 A3 = (   0.0000000000,   0.0000000000, -20.0000000000)


Analysis of symmetry for initial positions (statically):
=====================================================================
 Subroutine PRICEL returns following result:
 
  LATTYP: Found a base centered orthorhombic cell.
 ALAT       =     2.4651886975
 B/A-ratio  =     1.7305857390
 C/A-ratio  =     8.1129692100
  
  Lattice vectors:
  
 A1 = (   2.1331102020,  -1.2325943488,   0.0000000000)
 A2 = (  -2.1331102020,  -1.2325943488,   0.0000000000)
 A3 = (   0.0000000000,   0.0000000000, -20.0000000000)
 
   2 primitive cells build up your supercell.
 

 Routine SETGRP: Setting up the symmetry group for a 
 simple orthorhombic supercell.


 Subroutine GETGRP returns: Found  8 space group operations
 (whereof  8 operations were pure point group operations)
 out of a pool of  8 trial point group operations.


The static configuration has the point symmetry D_2h.


Analysis of symmetry for dynamics (positions and initial velocities):
=====================================================================
 Subroutine PRICEL returns following result:
 
  LATTYP: Found a base centered orthorhombic cell.
 ALAT       =     2.4651886975
 B/A-ratio  =     1.7305857390
 C/A-ratio  =     8.1129692100
  
  Lattice vectors:
  
 A1 = (   2.1331102020,  -1.2325943488,   0.0000000000)
 A2 = (  -2.1331102020,  -1.2325943488,   0.0000000000)
 A3 = (   0.0000000000,   0.0000000000, -20.0000000000)
 
   2 primitive cells build up your supercell.
 

 Routine SETGRP: Setting up the symmetry group for a 
 simple orthorhombic supercell.


 Subroutine GETGRP returns: Found  8 space group operations
 (whereof  8 operations were pure point group operations)
 out of a pool of  8 trial point group operations.


The dynamic configuration has the point symmetry D_2h.


 Subroutine INISYM returns: Found  8 space group operations
 (whereof  8 operations are pure point group operations),
 and found     2 'primitive' translations



 KPOINTS: K-point                                 

Automatic generation of k-mesh.
Space group operators:
 irot       det(A)        alpha          n_x          n_y          n_z        tau_x        tau_y        tau_z
    1     1.000000     0.000000     1.000000     0.000000     0.000000     0.000000    -0.000000    -0.000000
    2    -1.000000     0.000000     1.000000     0.000000     0.000000     0.000000    -0.000000    -0.000000
    3     1.000000   180.000000     0.000000     0.000000     1.000000     0.000000    -0.000000    -0.000000
    4    -1.000000   180.000000     0.000000     0.000000     1.000000     0.000000    -0.000000    -0.000000
    5     1.000000   179.999999     1.000000     0.000000     0.000000     0.000000    -0.000000    -0.000000
    6    -1.000000   179.999999     1.000000     0.000000     0.000000     0.000000    -0.000000    -0.000000
    7     1.000000   180.000000     0.000000     1.000000     0.000000     0.000000    -0.000000    -0.000000
    8    -1.000000   180.000000     0.000000     1.000000     0.000000     0.000000    -0.000000    -0.000000
 
 Subroutine IBZKPT returns following result:
 ===========================================
 
 Found     15 irreducible k-points:
 
 Following reciprocal coordinates:
            Coordinates               Weight
  0.000000  0.000000  0.000000      1.000000
  0.250000  0.000000  0.000000      2.000000
  0.500000  0.000000  0.000000      1.000000
  0.000000  0.125000  0.000000      2.000000
  0.250000  0.125000  0.000000      4.000000
  0.500000  0.125000  0.000000      2.000000
  0.000000  0.250000  0.000000      2.000000
  0.250000  0.250000  0.000000      4.000000
  0.500000  0.250000  0.000000      2.000000
  0.000000  0.375000  0.000000      2.000000
  0.250000  0.375000  0.000000      4.000000
  0.500000  0.375000  0.000000      2.000000
  0.000000  0.500000  0.000000      1.000000
  0.250000  0.500000  0.000000      2.000000
  0.500000  0.500000  0.000000      1.000000
 
 Following cartesian coordinates:
            Coordinates               Weight
  0.000000  0.000000  0.000000      1.000000
  0.058600  0.000000  0.000000      2.000000
  0.117200  0.000000  0.000000      1.000000
  0.000000  0.050706  0.000000      2.000000
  0.058600  0.050706  0.000000      4.000000
  0.117200  0.050706  0.000000      2.000000
  0.000000  0.101412  0.000000      2.000000
  0.058600  0.101412  0.000000      4.000000
  0.117200  0.101412  0.000000      2.000000
  0.000000  0.152118  0.000000      2.000000
  0.058600  0.152118  0.000000      4.000000
  0.117200  0.152118  0.000000      2.000000
  0.000000  0.202824  0.000000      1.000000
  0.058600  0.202824  0.000000      2.000000
  0.117200  0.202824  0.000000      1.000000
 
 TETIRR: Found     96 inequivalent tetrahedra from      192


--------------------------------------------------------------------------------------------------------




 Dimension of arrays:
   k-points           NKPTS =     15   k-points in BZ     NKDIM =     15   number of bands    NBANDS=     32
   number of dos      NEDOS =   3000   number of ions     NIONS =      4
   non local maximal  LDIM  =      4   non local SUM 2l+1 LMDIM =      8
   total plane-waves  NPLWV =  62720
   max r-space proj   IRMAX =      1   max aug-charges    IRDMAX=   3718
   dimension x,y,z NGX =    28 NGY =   16 NGZ =  140
   dimension x,y,z NGXF=    56 NGYF=   32 NGZF=  280
   support grid    NGXF=    56 NGYF=   32 NGZF=  280
   ions per type =               4
   NGX,Y,Z   is equivalent  to a cutoff of  10.91, 10.79, 11.64 a.u.
   NGXF,Y,Z  is equivalent  to a cutoff of  21.82, 21.58, 23.27 a.u.

 SYSTEM =  C                                       
 POSCAR =  graphene d=a0                           

 Startparameter for this run:
   NWRITE =      1    write-flag & timer
   PREC   = a         normal or accurate (medium, high low for compatibility)
   ISTART =      0    job   : 0-new  1-cont  2-samecut
   ICHARG =      2    charge: 1-file 2-atom 10-const
   ISPIN  =      1    spin polarized calculation?
   LNONCOLLINEAR =      F non collinear calculations
   LSORBIT =      F    spin-orbit coupling
   INIWAV =      1    electr: 0-lowe 1-rand  2-diag
   LASPH  =      F    aspherical Exc in radial PAW
   METAGGA=      F    non-selfconsistent MetaGGA calc.

 Electronic Relaxation 1
   ENCUT  =  400.0 eV  29.40 Ry    5.42 a.u.   6.96  4.02 32.61*2*pi/ulx,y,z
   ENINI  =  400.0     initial cutoff
   ENAUG  =  644.9 eV  augmentation charge cutoff
   NELM   =   2000;   NELMIN=  5; NELMDL= -5     # of ELM steps 
   EDIFF  = 0.1E-05   stopping-criterion for ELM
   LREAL  =      F    real-space projection
   NLSPLINE    = F    spline interpolate recip. space projectors
   LCOMPAT=      F    compatible to vasp.4.4
   GGA_COMPAT  = T    GGA compatible to vasp.4.4-vasp.4.6
   LMAXPAW     = -100 max onsite density
   LMAXMIX     =    2 max onsite mixed and CHGCAR
   VOSKOWN=      0    Vosko Wilk Nusair interpolation
   ROPT   =    0.00000
 Ionic relaxation
   EDIFFG = -.1E-01   stopping-criterion for IOM
   NSW    =      0    number of steps for IOM
   NBLOCK =      1;   KBLOCK =      1    inner block; outer block 
   IBRION =     -1    ionic relax: 0-MD 1-quasi-New 2-CG
   NFREE  =      0    steps in history (QN), initial steepest desc. (CG)
   ISIF   =      2    stress and relaxation
   IWAVPR =     10    prediction:  0-non 1-charg 2-wave 3-comb
   ISYM   =      2    0-nonsym 1-usesym 2-fastsym
   LCORR  =      T    Harris-Foulkes like correction to forces

   POTIM  = 0.5000    time-step for ionic-motion
   TEIN   =    0.0    initial temperature
   TEBEG  =    0.0;   TEEND  =   0.0 temperature during run
   SMASS  =  -3.00    Nose mass-parameter (am)
   estimated Nose-frequenzy (Omega)   =  0.10E-29 period in steps =****** mass=  -0.416E-27a.u.
   SCALEE = 1.0000    scale energy and forces
   NPACO  =    256;   APACO  = 16.0  distance and # of slots for P.C.
   PSTRESS=    0.0 pullay stress

  Mass of Ions in am
   POMASS =  12.01
  Ionic Valenz
   ZVAL   =   4.00
  Atomic Wigner-Seitz radii
   RWIGS  =  -1.00
  virtual crystal weights 
   VCA    =   1.00
   NELECT =      16.0000    total number of electrons
   NUPDOWN=      -1.0000    fix difference up-down

 DOS related values:
   EMIN   = -15.00;   EMAX   =  5.00  energy-range for DOS
   EFERMI =   0.00
   ISMEAR =    -5;   SIGMA  =   0.20  broadening in eV -4-tet -1-fermi 0-gaus

 Electronic relaxation 2 (details)
   IALGO  =     38    algorithm
   LDIAG  =      T    sub-space diagonalisation (order eigenvalues)
   LSUBROT=      F    optimize rotation matrix (better conditioning)
   TURBO    =      0    0=normal 1=particle mesh
   IRESTART =      0    0=no restart 2=restart with 2 vectors
   NREBOOT  =      0    no. of reboots
   NMIN     =      0    reboot dimension
   EREF     =   0.00    reference energy to select bands
   IMIX   =      4    mixing-type and parameters
     AMIX     =   0.40;   BMIX     =  1.00
     AMIX_MAG =   1.60;   BMIX_MAG =  1.00
     AMIN     =   0.10
     WC   =   100.;   INIMIX=   1;  MIXPRE=   1;  MAXMIX= -45

 Intra band minimization:
   WEIMIN = 0.0000     energy-eigenvalue tresh-hold
   EBREAK =  0.78E-08  absolut break condition
   DEPER  =   0.30     relativ break condition  

   TIME   =   0.40     timestep for ELM

  volume/ion in A,a.u.               =      52.59       354.86
  Fermi-wavevector in a.u.,A,eV,Ry     =   0.693650  1.310808  6.546446  0.481150
  Thomas-Fermi vector in A             =   1.775923

 Write flags
   LWAVE        =      T    write WAVECAR
   LDOWNSAMPLE  =      F    k-point downsampling of WAVECAR
   LCHARG       =      T    write CHGCAR
   LVTOT        =      F    write LOCPOT, total local potential
   LVHAR        =      F    write LOCPOT, Hartree potential only
   LELF         =      F    write electronic localiz. function (ELF)
   LORBIT       =     11    0 simple, 1 ext, 2 COOP (PROOUT), +10 PAW based schemes


 Dipole corrections
   LMONO  =      F    monopole corrections only (constant potential shift)
   LDIPOL =      F    correct potential (dipole corrections)
   IDIPOL =      0    1-x, 2-y, 3-z, 4-all directions 
   EPSILON=  1.0000000 bulk dielectric constant

 Exchange correlation treatment:
   GGA     =    --    GGA type
   LEXCH   =     8    internal setting for exchange type
   VOSKOWN=      0    Vosko Wilk Nusair interpolation
   LHFCALC =     F    Hartree Fock is set to
   LHFONE  =     F    Hartree Fock one center treatment
   AEXX    =    0.0000 exact exchange contribution

 Linear response parameters
   LEPSILON=     F    determine dielectric tensor
   LRPA    =     F    only Hartree local field effects (RPA)
   LNABLA  =     F    use nabla operator in PAW spheres
   LVEL    =     F    velocity operator in full k-point grid
   LINTERFAST=   F  fast interpolation
   KINTER  =     0    interpolate to denser k-point grid
   CSHIFT  =0.1000    complex shift for real part using Kramers Kronig
   OMEGAMAX=  -1.0    maximum frequency
   DEG_THRESHOLD= 0.2000000E-02 threshold for treating states as degnerate
   RTIME   =   -0.100 relaxation time in fs
  (WPLASMAI=    0.000 imaginary part of plasma frequency in eV, 0.658/RTIME)
   DFIELD  = 0.0000000 0.0000000 0.0000000 field for delta impulse in time

 Orbital magnetization related:
   ORBITALMAG=     F  switch on orbital magnetization
   LCHIMAG   =     F  perturbation theory with respect to B field
   DQ        =  0.001000  dq finite difference perturbation B field
   LLRAUG    =     F  two centre corrections for induced B field



--------------------------------------------------------------------------------------------------------


 Static calculation
 charge density and potential will be updated during run
 non-spin polarized calculation
 Variant of blocked Davidson
 Davidson routine will perform the subspace rotation
 perform sub-space diagonalisation
    after iterative eigenvector-optimisation
 modified Broyden-mixing scheme, WC =      100.0
 initial mixing is a Kerker type mixing with AMIX =  0.4000 and BMIX =      1.0000
 Hartree-type preconditioning will be used
 using additional bands           24
 reciprocal scheme for non local part
 use partial core corrections
 calculate Harris-corrections to forces   (improved forces if not selfconsistent)
 use gradient corrections 
 use of overlap-Matrix (Vanderbilt PP)
 Fermi weights with tetrahedron method with Bloechl corrections


--------------------------------------------------------------------------------------------------------


  energy-cutoff  :      400.00
  volume of cell :      210.34
      direct lattice vectors                 reciprocal lattice vectors
     4.266220405  0.000000000  0.000000000     0.234399516  0.000000000  0.000000000
     0.000000000  2.465188698  0.000000000     0.000000000  0.405648461  0.000000000
     0.000000000  0.000000000 20.000000000     0.000000000  0.000000000  0.050000000

  length of vectors
     4.266220405  2.465188698 20.000000000     0.234399516  0.405648461  0.050000000



 k-points in units of 2pi/SCALE and weight: K-point                                 
   0.00000000  0.00000000  0.00000000       0.031
   0.05859988  0.00000000  0.00000000       0.062
   0.11719976  0.00000000  0.00000000       0.031
   0.00000000  0.05070606  0.00000000       0.062
   0.05859988  0.05070606  0.00000000       0.125
   0.11719976  0.05070606  0.00000000       0.062
   0.00000000  0.10141212  0.00000000       0.062
   0.05859988  0.10141212  0.00000000       0.125
   0.11719976  0.10141212  0.00000000       0.062
   0.00000000  0.15211817  0.00000000       0.062
   0.05859988  0.15211817  0.00000000       0.125
   0.11719976  0.15211817  0.00000000       0.062
   0.00000000  0.20282423  0.00000000       0.031
   0.05859988  0.20282423  0.00000000       0.062
   0.11719976  0.20282423  0.00000000       0.031

 k-points in reciprocal lattice and weights: K-point                                 
   0.00000000  0.00000000  0.00000000       0.031
   0.25000000  0.00000000  0.00000000       0.062
   0.50000000  0.00000000  0.00000000       0.031
   0.00000000  0.12500000  0.00000000       0.062
   0.25000000  0.12500000  0.00000000       0.125
   0.50000000  0.12500000  0.00000000       0.062
   0.00000000  0.25000000  0.00000000       0.062
   0.25000000  0.25000000  0.00000000       0.125
   0.50000000  0.25000000  0.00000000       0.062
   0.00000000  0.37500000  0.00000000       0.062
   0.25000000  0.37500000  0.00000000       0.125
   0.50000000  0.37500000  0.00000000       0.062
   0.00000000  0.50000000  0.00000000       0.031
   0.25000000  0.50000000  0.00000000       0.062
   0.50000000  0.50000000  0.00000000       0.031

 position of ions in fractional coordinates (direct lattice) 
   0.33334688  0.00000000  0.50000000
   0.66665312  0.00000000  0.50000000
   0.16665312  0.50000000  0.50000000
   0.83334688  0.50000000  0.50000000

 position of ions in cartesian coordinates  (Angst):
   1.42213127  0.00000000 10.00000000
   2.84408913  0.00000000 10.00000000
   0.71097893  1.23259435 10.00000000
   3.55524148  1.23259435 10.00000000



--------------------------------------------------------------------------------------------------------


 k-point  1 :   0.0000 0.0000 0.0000  plane waves:    3753
 k-point  2 :   0.2500 0.0000 0.0000  plane waves:    3758
 k-point  3 :   0.5000 0.0000 0.0000  plane waves:    3806
 k-point  4 :   0.0000 0.1250 0.0000  plane waves:    3758
 k-point  5 :   0.2500 0.1250 0.0000  plane waves:    3800
 k-point  6 :   0.5000 0.1250 0.0000  plane waves:    3820
 k-point  7 :   0.0000 0.2500 0.0000  plane waves:    3818
 k-point  8 :   0.2500 0.2500 0.0000  plane waves:    3837
 k-point  9 :   0.5000 0.2500 0.0000  plane waves:    3838
 k-point 10 :   0.0000 0.3750 0.0000  plane waves:    3844
 k-point 11 :   0.2500 0.3750 0.0000  plane waves:    3856
 k-point 12 :   0.5000 0.3750 0.0000  plane waves:    3854
 k-point 13 :   0.0000 0.5000 0.0000  plane waves:    3876
 k-point 14 :   0.2500 0.5000 0.0000  plane waves:    3870
 k-point 15 :   0.5000 0.5000 0.0000  plane waves:    3788

 maximum and minimum number of plane-waves per node :      3876     3753

 maximum number of plane-waves:      3876
 maximum index in each direction: 
   IXMAX=    6   IYMAX=    4   IZMAX=   32
   IXMIN=   -7   IYMIN=   -4   IZMIN=  -32


 serial   3D FFT for wavefunctions
 parallel 3D FFT for charge:
    minimum data exchange during FFTs selected (reduces bandwidth)


 total amount of memory used by VASP MPI-rank0    72317. kBytes
=======================================================================

   base      :      30000. kBytes
   nonl-proj :       3969. kBytes
   fftplans  :       8715. kBytes
   grid      :      14615. kBytes
   one-center:         12. kBytes
   wavefun   :      15006. kBytes

     INWAV:  cpu time    0.0001: real time    0.0001
 Broyden mixing: mesh for mixing (old mesh)
   NGX = 13   NGY =  9   NGZ = 65
  (NGX  = 56   NGY  = 32   NGZ  =280)
  gives a total of   7605 points

 initial charge density was supplied:
 charge density of overlapping atoms calculated
 number of electron      16.0000000 magnetization 
 keeping initial charge density in first step


--------------------------------------------------------------------------------------------------------


 Maximum index for augmentation-charges         1711 (set IRDMAX)


--------------------------------------------------------------------------------------------------------


 First call to EWALD:  gamma=   0.298
 Maximum number of real-space cells 4x 6x 1
 Maximum number of reciprocal cells 2x 1x 8

    FEWALD:  cpu time    0.0013: real time    0.0013


--------------------------------------- Iteration      1(   1)  ---------------------------------------


    POTLOK:  cpu time    0.1630: real time    0.1679
    SETDIJ:  cpu time    0.0032: real time    0.0042
     EDDAV:  cpu time    3.4996: real time    4.1690
 BZINTS: Fermi energy:  2.708839; 16.000000 electrons
         Band energy:-147.779989;  BLOECHL correction: -0.257026
       DOS:  cpu time    0.0123: real time    0.0123
    --------------------------------------------
      LOOP:  cpu time    3.6781: real time    4.3535

 eigenvalue-minimisations  :  1000
 total energy-change (2. order) : 0.7245087E+02  (-0.4647502E+03)
 number of electron      16.0000000 magnetization 
 augmentation part       16.0000000 magnetization 

 Free energy of the ion-electron system (eV)
  ---------------------------------------------------
  alpha Z        PSCENC =         6.24865773
  Ewald energy   TEWEN  =      2594.25031041
  -Hartree energ DENC   =     -3019.23920435
  -exchange      EXHF   =         0.00000000
  -V(xc)+E(xc)   XCENC  =        52.73982599
  PAW double counting   =       434.08818552     -436.36580876
  entropy T*S    EENTRO =         0.00000000
  eigenvalues    EBANDS =      -147.77998898
  atomic energy  EATOM  =       588.50889549
  Solvation  Ediel_sol  =         0.00000000
  ---------------------------------------------------
  free energy    TOTEN  =        72.45087305 eV

  energy without entropy =       72.45087305  energy(sigma->0) =       72.45087305


--------------------------------------------------------------------------------------------------------




--------------------------------------- Iteration      1(   2)  ---------------------------------------


     EDDAV:  cpu time    4.2191: real time    4.4648
 BZINTS: Fermi energy: -5.316772; 16.000000 electrons
         Band energy:-251.992428;  BLOECHL correction:  0.000000
       DOS:  cpu time    0.0085: real time    0.0085
    --------------------------------------------
      LOOP:  cpu time    4.2276: real time    4.4733

 eigenvalue-minimisations  :  1352
 total energy-change (2. order) :-0.1042124E+03  (-0.9600987E+02)
 number of electron      16.0000000 magnetization 
 augmentation part       16.0000000 magnetization 

 Free energy of the ion-electron system (eV)
  ---------------------------------------------------
  alpha Z        PSCENC =         6.24865773
  Ewald energy   TEWEN  =      2594.25031041
  -Hartree energ DENC   =     -3019.23920435
  -exchange      EXHF   =         0.00000000
  -V(xc)+E(xc)   XCENC  =        52.73982599
  PAW double counting   =       434.08818552     -436.36580876
  entropy T*S    EENTRO =         0.00000000
  eigenvalues    EBANDS =      -251.99242753
  atomic energy  EATOM  =       588.50889549
  Solvation  Ediel_sol  =         0.00000000
  ---------------------------------------------------
  free energy    TOTEN  =       -31.76156549 eV

  energy without entropy =      -31.76156549  energy(sigma->0) =      -31.76156549


--------------------------------------------------------------------------------------------------------




--------------------------------------- Iteration      1(   3)  ---------------------------------------


     EDDAV:  cpu time    3.3097: real time    3.3233
 BZINTS: Fermi energy: -6.910637; 16.000000 electrons
         Band energy:-259.575282;  BLOECHL correction:  0.000000
       DOS:  cpu time    0.0053: real time    0.0053
    --------------------------------------------
      LOOP:  cpu time    3.3150: real time    3.3286

 eigenvalue-minimisations  :  1280
 total energy-change (2. order) :-0.7582854E+01  (-0.7441346E+01)
 number of electron      16.0000000 magnetization 
 augmentation part       16.0000000 magnetization 

 Free energy of the ion-electron system (eV)
  ---------------------------------------------------
  alpha Z        PSCENC =         6.24865773
  Ewald energy   TEWEN  =      2594.25031041
  -Hartree energ DENC   =     -3019.23920435
  -exchange      EXHF   =         0.00000000
  -V(xc)+E(xc)   XCENC  =        52.73982599
  PAW double counting   =       434.08818552     -436.36580876
  entropy T*S    EENTRO =         0.00000000
  eigenvalues    EBANDS =      -259.57528170
  atomic energy  EATOM  =       588.50889549
  Solvation  Ediel_sol  =         0.00000000
  ---------------------------------------------------
  free energy    TOTEN  =       -39.34441966 eV

  energy without entropy =      -39.34441966  energy(sigma->0) =      -39.34441966


--------------------------------------------------------------------------------------------------------




--------------------------------------- Iteration      1(   4)  ---------------------------------------


     EDDAV:  cpu time    3.3313: real time    3.3543
 BZINTS: Fermi energy: -6.943981; 16.000000 electrons
         Band energy:-259.687496;  BLOECHL correction:  0.000000
       DOS:  cpu time    0.0052: real time    0.0053
    --------------------------------------------
      LOOP:  cpu time    3.3365: real time    3.3596

 eigenvalue-minimisations  :  1248
 total energy-change (2. order) :-0.1122145E+00  (-0.1120347E+00)
 number of electron      16.0000000 magnetization 
 augmentation part       16.0000000 magnetization 

 Free energy of the ion-electron system (eV)
  ---------------------------------------------------
  alpha Z        PSCENC =         6.24865773
  Ewald energy   TEWEN  =      2594.25031041
  -Hartree energ DENC   =     -3019.23920435
  -exchange      EXHF   =         0.00000000
  -V(xc)+E(xc)   XCENC  =        52.73982599
  PAW double counting   =       434.08818552     -436.36580876
  entropy T*S    EENTRO =         0.00000000
  eigenvalues    EBANDS =      -259.68749624
  atomic energy  EATOM  =       588.50889549
  Solvation  Ediel_sol  =         0.00000000
  ---------------------------------------------------
  free energy    TOTEN  =       -39.45663421 eV

  energy without entropy =      -39.45663421  energy(sigma->0) =      -39.45663421


--------------------------------------------------------------------------------------------------------




--------------------------------------- Iteration      1(   5)  ---------------------------------------


     EDDAV:  cpu time    3.2646: real time    3.2781
 BZINTS: Fermi energy: -6.943981; 16.000000 electrons
         Band energy:-259.689716;  BLOECHL correction:  0.000000
       DOS:  cpu time    0.0050: real time    0.0050
    CHARGE:  cpu time    0.0987: real time    0.1065
    MIXING:  cpu time    0.0065: real time    0.0080
    --------------------------------------------
      LOOP:  cpu time    3.3748: real time    3.3976

 eigenvalue-minimisations  :  1256
 total energy-change (2. order) :-0.2219358E-02  (-0.2219140E-02)
 number of electron      15.9999999 magnetization 
 augmentation part        0.4236734 magnetization 

 Broyden mixing:
  rms(total) = 0.90168E+00    rms(broyden)= 0.90142E+00
  rms(prec ) = 0.96277E+00
  weight for this iteration     100.00

 Free energy of the ion-electron system (eV)
  ---------------------------------------------------
  alpha Z        PSCENC =         6.24865773
  Ewald energy   TEWEN  =      2594.25031041
  -Hartree energ DENC   =     -3019.23920435
  -exchange      EXHF   =         0.00000000
  -V(xc)+E(xc)   XCENC  =        52.73982599
  PAW double counting   =       434.08818552     -436.36580876
  entropy T*S    EENTRO =         0.00000000
  eigenvalues    EBANDS =      -259.68971560
  atomic energy  EATOM  =       588.50889549
  Solvation  Ediel_sol  =         0.00000000
  ---------------------------------------------------
  free energy    TOTEN  =       -39.45885357 eV

  energy without entropy =      -39.45885357  energy(sigma->0) =      -39.45885357


--------------------------------------------------------------------------------------------------------




--------------------------------------- Iteration      1(   6)  ---------------------------------------


    POTLOK:  cpu time    0.1118: real time    0.1159
    SETDIJ:  cpu time    0.0023: real time    0.0023
     EDDAV:  cpu time    3.0309: real time    3.0413
 BZINTS: Fermi energy: -5.796932; 16.000000 electrons
         Band energy:-236.182051;  BLOECHL correction:  0.000000
       DOS:  cpu time    0.0074: real time    0.0074
    CHARGE:  cpu time    0.0889: real time    0.0897
    MIXING:  cpu time    0.0052: real time    0.0090
    --------------------------------------------
      LOOP:  cpu time    3.2465: real time    3.2657

 eigenvalue-minimisations  :  1176
 total energy-change (2. order) : 0.1820922E+01  (-0.9874856E-01)
 number of electron      15.9999999 magnetization 
 augmentation part        0.4064907 magnetization 

 Broyden mixing:
  rms(total) = 0.53237E+00    rms(broyden)= 0.53234E+00
  rms(prec ) = 0.56337E+00
  weight for this iteration     100.00

 eigenvalues of (default mixing * dielectric matrix)
  average eigenvalue GAMMA=   2.2455
  2.2455

 Free energy of the ion-electron system (eV)
  ---------------------------------------------------
  alpha Z        PSCENC =         6.24865773
  Ewald energy   TEWEN  =      2594.25031041
  -Hartree energ DENC   =     -3041.59938943
  -exchange      EXHF   =         0.00000000
  -V(xc)+E(xc)   XCENC  =        53.69858180
  PAW double counting   =       811.39376353     -813.95669982
  entropy T*S    EENTRO =         0.00000000
  eigenvalues    EBANDS =      -236.18205148
  atomic energy  EATOM  =       588.50889549
  Solvation  Ediel_sol  =         0.00000000
  ---------------------------------------------------
  free energy    TOTEN  =       -37.63793177 eV

  energy without entropy =      -37.63793177  energy(sigma->0) =      -37.63793177


--------------------------------------------------------------------------------------------------------




--------------------------------------- Iteration      1(   7)  ---------------------------------------


    POTLOK:  cpu time    0.1061: real time    0.1067
    SETDIJ:  cpu time    0.0023: real time    0.0023
     EDDAV:  cpu time    3.1036: real time    3.1153
 BZINTS: Fermi energy: -4.316439; 16.000000 electrons
         Band energy:-205.728564;  BLOECHL correction:  0.000000
       DOS:  cpu time    0.0052: real time    0.0052
    CHARGE:  cpu time    0.0912: real time    0.0918
    MIXING:  cpu time    0.0037: real time    0.0061
    --------------------------------------------
      LOOP:  cpu time    3.3120: real time    3.3274

 eigenvalue-minimisations  :  1200
 total energy-change (2. order) : 0.7084364E+00  (-0.1530178E+00)
 number of electron      16.0000000 magnetization 
 augmentation part        0.3855785 magnetization 

 Broyden mixing:
  rms(total) = 0.14275E+00    rms(broyden)= 0.14260E+00
  rms(prec ) = 0.14777E+00
  weight for this iteration     100.00

 eigenvalues of (default mixing * dielectric matrix)
  average eigenvalue GAMMA=   2.4373
  2.3209  2.5537

 Free energy of the ion-electron system (eV)
  ---------------------------------------------------
  alpha Z        PSCENC =         6.24865773
  Ewald energy   TEWEN  =      2594.25031041
  -Hartree energ DENC   =     -3072.38871942
  -exchange      EXHF   =         0.00000000
  -V(xc)+E(xc)   XCENC  =        55.00992894
  PAW double counting   =      1557.84043527    -1560.67043991
  entropy T*S    EENTRO =         0.00000000
  eigenvalues    EBANDS =      -205.72856387
  atomic energy  EATOM  =       588.50889549
  Solvation  Ediel_sol  =         0.00000000
  ---------------------------------------------------
  free energy    TOTEN  =       -36.92949537 eV

  energy without entropy =      -36.92949537  energy(sigma->0) =      -36.92949537


--------------------------------------------------------------------------------------------------------




--------------------------------------- Iteration      1(   8)  ---------------------------------------


    POTLOK:  cpu time    0.1120: real time    0.1125
    SETDIJ:  cpu time    0.0018: real time    0.0018
     EDDAV:  cpu time    3.1035: real time    3.1160
 BZINTS: Fermi energy: -4.049683; 16.000000 electrons
         Band energy:-201.628440;  BLOECHL correction:  0.000000
       DOS:  cpu time    0.0058: real time    0.0058
    CHARGE:  cpu time    0.0906: real time    0.0916
    MIXING:  cpu time    0.0048: real time    0.0048
    --------------------------------------------
      LOOP:  cpu time    3.3185: real time    3.3324

 eigenvalue-minimisations  :  1200
 total energy-change (2. order) : 0.1323265E-01  (-0.7345151E-02)
 number of electron      16.0000000 magnetization 
 augmentation part        0.3831008 magnetization 

 Broyden mixing:
  rms(total) = 0.31951E-01    rms(broyden)= 0.31931E-01
  rms(prec ) = 0.38178E-01
  weight for this iteration     100.00

 eigenvalues of (default mixing * dielectric matrix)
  average eigenvalue GAMMA=   1.7803
  2.2854  2.2854  0.7699

 Free energy of the ion-electron system (eV)
  ---------------------------------------------------
  alpha Z        PSCENC =         6.24865773
  Ewald energy   TEWEN  =      2594.25031041
  -Hartree energ DENC   =     -3076.59102970
  -exchange      EXHF   =         0.00000000
  -V(xc)+E(xc)   XCENC  =        54.99537642
  PAW double counting   =      1761.68746874    -1764.38750199
  entropy T*S    EENTRO =         0.00000000
  eigenvalues    EBANDS =      -201.62843982
  atomic energy  EATOM  =       588.50889549
  Solvation  Ediel_sol  =         0.00000000
  ---------------------------------------------------
  free energy    TOTEN  =       -36.91626272 eV

  energy without entropy =      -36.91626272  energy(sigma->0) =      -36.91626272


--------------------------------------------------------------------------------------------------------




--------------------------------------- Iteration      1(   9)  ---------------------------------------


    POTLOK:  cpu time    0.1032: real time    0.1039
    SETDIJ:  cpu time    0.0022: real time    0.0022
     EDDAV:  cpu time    3.0424: real time    3.0541
 BZINTS: Fermi energy: -4.003001; 16.000000 electrons
         Band energy:-200.750563;  BLOECHL correction:  0.000000
       DOS:  cpu time    0.0052: real time    0.0052
    CHARGE:  cpu time    0.0872: real time    0.0889
    MIXING:  cpu time    0.0036: real time    0.0036
    --------------------------------------------
      LOOP:  cpu time    3.2436: real time    3.2577

 eigenvalue-minimisations  :  1176
 total energy-change (2. order) : 0.4279403E-03  (-0.1646291E-03)
 number of electron      16.0000000 magnetization 
 augmentation part        0.3827475 magnetization 

 Broyden mixing:
  rms(total) = 0.15738E-01    rms(broyden)= 0.15735E-01
  rms(prec ) = 0.24793E-01
  weight for this iteration     100.00

 eigenvalues of (default mixing * dielectric matrix)
  average eigenvalue GAMMA=   2.2743
  1.0563  3.1839  2.8763  1.9808

 Free energy of the ion-electron system (eV)
  ---------------------------------------------------
  alpha Z        PSCENC =         6.24865773
  Ewald energy   TEWEN  =      2594.25031041
  -Hartree energ DENC   =     -3077.47848111
  -exchange      EXHF   =         0.00000000
  -V(xc)+E(xc)   XCENC  =        55.01906064
  PAW double counting   =      1738.00048371    -1740.71419896
  entropy T*S    EENTRO =         0.00000000
  eigenvalues    EBANDS =      -200.75056268
  atomic energy  EATOM  =       588.50889549
  Solvation  Ediel_sol  =         0.00000000
  ---------------------------------------------------
  free energy    TOTEN  =       -36.91583478 eV

  energy without entropy =      -36.91583478  energy(sigma->0) =      -36.91583478


--------------------------------------------------------------------------------------------------------




--------------------------------------- Iteration      1(  10)  ---------------------------------------


    POTLOK:  cpu time    0.1031: real time    0.1035
    SETDIJ:  cpu time    0.0018: real time    0.0018
     EDDAV:  cpu time    2.9836: real time    2.9947
 BZINTS: Fermi energy: -3.576192; 16.000000 electrons
         Band energy:-193.611462;  BLOECHL correction:  0.000000
       DOS:  cpu time    0.0055: real time    0.0055
    CHARGE:  cpu time    0.0878: real time    0.0886
    MIXING:  cpu time    0.0037: real time    0.0037
    --------------------------------------------
      LOOP:  cpu time    3.1854: real time    3.1977

 eigenvalue-minimisations  :  1128
 total energy-change (2. order) : 0.4965700E-02  (-0.2920130E-03)
 number of electron      16.0000000 magnetization 
 augmentation part        0.3819283 magnetization 

 Broyden mixing:
  rms(total) = 0.15598E-01    rms(broyden)= 0.15595E-01
  rms(prec ) = 0.17061E-01
  weight for this iteration     100.00

 eigenvalues of (default mixing * dielectric matrix)
  average eigenvalue GAMMA=   1.9236
  3.2865  2.4765  2.0203  1.0142  0.8204

 Free energy of the ion-electron system (eV)
  ---------------------------------------------------
  alpha Z        PSCENC =         6.24865773
  Ewald energy   TEWEN  =      2594.25031041
  -Hartree energ DENC   =     -3084.71392443
  -exchange      EXHF   =         0.00000000
  -V(xc)+E(xc)   XCENC  =        55.11034600
  PAW double counting   =      1698.91329622    -1701.61698865
  entropy T*S    EENTRO =         0.00000000
  eigenvalues    EBANDS =      -193.61146184
  atomic energy  EATOM  =       588.50889549
  Solvation  Ediel_sol  =         0.00000000
  ---------------------------------------------------
  free energy    TOTEN  =       -36.91086908 eV

  energy without entropy =      -36.91086908  energy(sigma->0) =      -36.91086908


--------------------------------------------------------------------------------------------------------




--------------------------------------- Iteration      1(  11)  ---------------------------------------


    POTLOK:  cpu time    0.1047: real time    0.1053
    SETDIJ:  cpu time    0.0019: real time    0.0019
     EDDAV:  cpu time    2.9463: real time    2.9572
 BZINTS: Fermi energy: -3.542848; 16.000000 electrons
         Band energy:-193.070896;  BLOECHL correction:  0.000000
       DOS:  cpu time    0.0052: real time    0.0052
    CHARGE:  cpu time    0.0890: real time    0.0897
    MIXING:  cpu time    0.0036: real time    0.0037
    --------------------------------------------
      LOOP:  cpu time    3.1507: real time    3.1630

 eigenvalue-minimisations  :  1144
 total energy-change (2. order) :-0.3307426E-03  (-0.4259104E-04)
 number of electron      16.0000000 magnetization 
 augmentation part        0.3816083 magnetization 

 Broyden mixing:
  rms(total) = 0.61087E-02    rms(broyden)= 0.61061E-02
  rms(prec ) = 0.86776E-02
  weight for this iteration     100.00

 eigenvalues of (default mixing * dielectric matrix)
  average eigenvalue GAMMA=   2.4240
  5.4134  2.6025  2.2522  2.2522  1.0120  1.0120

 Free energy of the ion-electron system (eV)
  ---------------------------------------------------
  alpha Z        PSCENC =         6.24865773
  Ewald energy   TEWEN  =      2594.25031041
  -Hartree energ DENC   =     -3085.26179731
  -exchange      EXHF   =         0.00000000
  -V(xc)+E(xc)   XCENC  =        55.11778150
  PAW double counting   =      1717.54031045    -1720.24446177
  entropy T*S    EENTRO =         0.00000000
  eigenvalues    EBANDS =      -193.07089631
  atomic energy  EATOM  =       588.50889549
  Solvation  Ediel_sol  =         0.00000000
  ---------------------------------------------------
  free energy    TOTEN  =       -36.91119982 eV

  energy without entropy =      -36.91119982  energy(sigma->0) =      -36.91119982


--------------------------------------------------------------------------------------------------------




--------------------------------------- Iteration      1(  12)  ---------------------------------------


    POTLOK:  cpu time    0.1064: real time    0.1071
    SETDIJ:  cpu time    0.0020: real time    0.0020
     EDDAV:  cpu time    2.8430: real time    2.8636
 BZINTS: Fermi energy: -3.416139; 16.000000 electrons
         Band energy:-191.116871;  BLOECHL correction:  0.000000
       DOS:  cpu time    0.0076: real time    0.0077
    CHARGE:  cpu time    0.0766: real time    0.0776
    MIXING:  cpu time    0.0041: real time    0.0041
    --------------------------------------------
      LOOP:  cpu time    3.0397: real time    3.0621

 eigenvalue-minimisations  :  1064
 total energy-change (2. order) :-0.1249110E-02  (-0.2581244E-04)
 number of electron      16.0000000 magnetization 
 augmentation part        0.3816750 magnetization 

 Broyden mixing:
  rms(total) = 0.57374E-02    rms(broyden)= 0.57373E-02
  rms(prec ) = 0.61907E-02
  weight for this iteration     100.00

 eigenvalues of (default mixing * dielectric matrix)
  average eigenvalue GAMMA=   2.3365
  5.9530  2.8683  2.6139  1.9926  1.0502  0.9387  0.9387

 Free energy of the ion-electron system (eV)
  ---------------------------------------------------
  alpha Z        PSCENC =         6.24865773
  Ewald energy   TEWEN  =      2594.25031041
  -Hartree energ DENC   =     -3087.20964533
  -exchange      EXHF   =         0.00000000
  -V(xc)+E(xc)   XCENC  =        55.11122861
  PAW double counting   =      1725.39060991    -1728.09563470
  entropy T*S    EENTRO =         0.00000000
  eigenvalues    EBANDS =      -191.11687105
  atomic energy  EATOM  =       588.50889549
  Solvation  Ediel_sol  =         0.00000000
  ---------------------------------------------------
  free energy    TOTEN  =       -36.91244893 eV

  energy without entropy =      -36.91244893  energy(sigma->0) =      -36.91244893


--------------------------------------------------------------------------------------------------------




--------------------------------------- Iteration      1(  13)  ---------------------------------------


    POTLOK:  cpu time    0.1047: real time    0.1051
    SETDIJ:  cpu time    0.0023: real time    0.0023
     EDDAV:  cpu time    2.7997: real time    2.8094
 BZINTS: Fermi energy: -3.389463; 16.000000 electrons
         Band energy:-190.629895;  BLOECHL correction:  0.000000
       DOS:  cpu time    0.0056: real time    0.0056
    CHARGE:  cpu time    0.0853: real time    0.0868
    MIXING:  cpu time    0.0052: real time    0.0054
    --------------------------------------------
      LOOP:  cpu time    3.0028: real time    3.0146

 eigenvalue-minimisations  :  1072
 total energy-change (2. order) :-0.6747329E-03  (-0.4399808E-05)
 number of electron      16.0000000 magnetization 
 augmentation part        0.3815599 magnetization 

 Broyden mixing:
  rms(total) = 0.30647E-02    rms(broyden)= 0.30646E-02
  rms(prec ) = 0.34215E-02
  weight for this iteration     100.00

 eigenvalues of (default mixing * dielectric matrix)
  average eigenvalue GAMMA=   2.7911
  7.7725  4.3769  2.5844  2.5844  2.0036  1.0476  0.9796  0.9796

 Free energy of the ion-electron system (eV)
  ---------------------------------------------------
  alpha Z        PSCENC =         6.24865773
  Ewald energy   TEWEN  =      2594.25031041
  -Hartree energ DENC   =     -3087.70019546
  -exchange      EXHF   =         0.00000000
  -V(xc)+E(xc)   XCENC  =        55.11725167
  PAW double counting   =      1723.50831031    -1726.21645913
  entropy T*S    EENTRO =         0.00000000
  eigenvalues    EBANDS =      -190.62989468
  atomic energy  EATOM  =       588.50889549
  Solvation  Ediel_sol  =         0.00000000
  ---------------------------------------------------
  free energy    TOTEN  =       -36.91312366 eV

  energy without entropy =      -36.91312366  energy(sigma->0) =      -36.91312366


--------------------------------------------------------------------------------------------------------




--------------------------------------- Iteration      1(  14)  ---------------------------------------


    POTLOK:  cpu time    0.1074: real time    0.1092
    SETDIJ:  cpu time    0.0019: real time    0.0019
     EDDAV:  cpu time    2.7337: real time    2.7437
 BZINTS: Fermi energy: -3.369456; 16.000000 electrons
         Band energy:-190.345814;  BLOECHL correction:  0.000000
       DOS:  cpu time    0.0051: real time    0.0051
    CHARGE:  cpu time    0.0890: real time    0.0898
    MIXING:  cpu time    0.0050: real time    0.0050
    --------------------------------------------
      LOOP:  cpu time    2.9421: real time    2.9549

 eigenvalue-minimisations  :  1032
 total energy-change (2. order) :-0.1402826E-02  (-0.1434385E-04)
 number of electron      16.0000000 magnetization 
 augmentation part        0.3815511 magnetization 

 Broyden mixing:
  rms(total) = 0.14468E-02    rms(broyden)= 0.14468E-02
  rms(prec ) = 0.15017E-02
  weight for this iteration     100.00

 eigenvalues of (default mixing * dielectric matrix)
  average eigenvalue GAMMA=   2.6830
  7.8978  4.3965  2.6953  2.5140  2.0021  1.4718  1.1961  1.0386  0.9346

 Free energy of the ion-electron system (eV)
  ---------------------------------------------------
  alpha Z        PSCENC =         6.24865773
  Ewald energy   TEWEN  =      2594.25031041
  -Hartree energ DENC   =     -3087.98442250
  -exchange      EXHF   =         0.00000000
  -V(xc)+E(xc)   XCENC  =        55.11417011
  PAW double counting   =      1718.19574760    -1720.90207181
  entropy T*S    EENTRO =         0.00000000
  eigenvalues    EBANDS =      -190.34581351
  atomic energy  EATOM  =       588.50889549
  Solvation  Ediel_sol  =         0.00000000
  ---------------------------------------------------
  free energy    TOTEN  =       -36.91452649 eV

  energy without entropy =      -36.91452649  energy(sigma->0) =      -36.91452649


--------------------------------------------------------------------------------------------------------




--------------------------------------- Iteration      1(  15)  ---------------------------------------


    POTLOK:  cpu time    0.1110: real time    0.1115
    SETDIJ:  cpu time    0.0018: real time    0.0018
     EDDAV:  cpu time    2.9228: real time    2.9351
 BZINTS: Fermi energy: -3.369456; 16.000000 electrons
         Band energy:-190.300232;  BLOECHL correction:  0.000000
       DOS:  cpu time    0.0053: real time    0.0053
    CHARGE:  cpu time    0.0853: real time    0.0865
    MIXING:  cpu time    0.0058: real time    0.0058
    --------------------------------------------
      LOOP:  cpu time    3.1321: real time    3.1461

 eigenvalue-minimisations  :  1120
 total energy-change (2. order) :-0.6338296E-04  (-0.9071252E-07)
 number of electron      16.0000000 magnetization 
 augmentation part        0.3815579 magnetization 

 Broyden mixing:
  rms(total) = 0.52421E-03    rms(broyden)= 0.52420E-03
  rms(prec ) = 0.59266E-03
  weight for this iteration     100.00

 eigenvalues of (default mixing * dielectric matrix)
  average eigenvalue GAMMA=   2.7682
  8.3566  4.9143  3.1698  2.7219  2.5219  1.9700  1.0701  1.0134  1.0134  0.9301

 Free energy of the ion-electron system (eV)
  ---------------------------------------------------
  alpha Z        PSCENC =         6.24865773
  Ewald energy   TEWEN  =      2594.25031041
  -Hartree energ DENC   =     -3088.03021331
  -exchange      EXHF   =         0.00000000
  -V(xc)+E(xc)   XCENC  =        55.11414448
  PAW double counting   =      1719.22341256    -1721.92956486
  entropy T*S    EENTRO =         0.00000000
  eigenvalues    EBANDS =      -190.30023236
  atomic energy  EATOM  =       588.50889549
  Solvation  Ediel_sol  =         0.00000000
  ---------------------------------------------------
  free energy    TOTEN  =       -36.91458987 eV

  energy without entropy =      -36.91458987  energy(sigma->0) =      -36.91458987


--------------------------------------------------------------------------------------------------------




--------------------------------------- Iteration      1(  16)  ---------------------------------------


    POTLOK:  cpu time    0.1103: real time    0.1107
    SETDIJ:  cpu time    0.0019: real time    0.0019
     EDDAV:  cpu time    2.6250: real time    2.6336
 BZINTS: Fermi energy: -3.369456; 16.000000 electrons
         Band energy:-190.278125;  BLOECHL correction:  0.000000
       DOS:  cpu time    0.0071: real time    0.0071
    CHARGE:  cpu time    0.0790: real time    0.0795
    MIXING:  cpu time    0.0042: real time    0.0042
    --------------------------------------------
      LOOP:  cpu time    2.8275: real time    2.8370

 eigenvalue-minimisations  :   976
 total energy-change (2. order) :-0.8712925E-04  (-0.3796417E-06)
 number of electron      16.0000000 magnetization 
 augmentation part        0.3815633 magnetization 

 Broyden mixing:
  rms(total) = 0.33072E-03    rms(broyden)= 0.33072E-03
  rms(prec ) = 0.35982E-03
  weight for this iteration     100.00

 eigenvalues of (default mixing * dielectric matrix)
  average eigenvalue GAMMA=   2.6810
  8.3805  5.1200  3.2810  2.6216  2.5145  2.0013  1.3703  1.2546  1.0313  0.9582
  0.9582

 Free energy of the ion-electron system (eV)
  ---------------------------------------------------
  alpha Z        PSCENC =         6.24865773
  Ewald energy   TEWEN  =      2594.25031041
  -Hartree energ DENC   =     -3088.05175378
  -exchange      EXHF   =         0.00000000
  -V(xc)+E(xc)   XCENC  =        55.11368750
  PAW double counting   =      1719.99102275    -1722.69737211
  entropy T*S    EENTRO =         0.00000000
  eigenvalues    EBANDS =      -190.27812498
  atomic energy  EATOM  =       588.50889549
  Solvation  Ediel_sol  =         0.00000000
  ---------------------------------------------------
  free energy    TOTEN  =       -36.91467700 eV

  energy without entropy =      -36.91467700  energy(sigma->0) =      -36.91467700


--------------------------------------------------------------------------------------------------------




--------------------------------------- Iteration      1(  17)  ---------------------------------------


    POTLOK:  cpu time    0.1152: real time    0.1167
    SETDIJ:  cpu time    0.0020: real time    0.0020
     EDDAV:  cpu time    2.5850: real time    2.5973
 BZINTS: Fermi energy: -3.369456; 16.000000 electrons
         Band energy:-190.258634;  BLOECHL correction:  0.000000
       DOS:  cpu time    0.0053: real time    0.0054
    CHARGE:  cpu time    0.0799: real time    0.0802
    MIXING:  cpu time    0.0058: real time    0.0058
    --------------------------------------------
      LOOP:  cpu time    2.7933: real time    2.8073

 eigenvalue-minimisations  :   952
 total energy-change (2. order) :-0.1258192E-04  (-0.1975399E-07)
 number of electron      16.0000000 magnetization 
 augmentation part        0.3815626 magnetization 

 Broyden mixing:
  rms(total) = 0.68034E-04    rms(broyden)= 0.68033E-04
  rms(prec ) = 0.11264E-03
  weight for this iteration     100.00

 eigenvalues of (default mixing * dielectric matrix)
  average eigenvalue GAMMA=   2.6695
  8.4437  5.3411  3.6206  2.7647  2.5641  2.2155  1.9057  1.2072  0.9361  0.9999
  0.9999  1.0356

 Free energy of the ion-electron system (eV)
  ---------------------------------------------------
  alpha Z        PSCENC =         6.24865773
  Ewald energy   TEWEN  =      2594.25031041
  -Hartree energ DENC   =     -3088.07141636
  -exchange      EXHF   =         0.00000000
  -V(xc)+E(xc)   XCENC  =        55.11378287
  PAW double counting   =      1719.67984836    -1722.38613413
  entropy T*S    EENTRO =         0.00000000
  eigenvalues    EBANDS =      -190.25863395
  atomic energy  EATOM  =       588.50889549
  Solvation  Ediel_sol  =         0.00000000
  ---------------------------------------------------
  free energy    TOTEN  =       -36.91468958 eV

  energy without entropy =      -36.91468958  energy(sigma->0) =      -36.91468958


--------------------------------------------------------------------------------------------------------




--------------------------------------- Iteration      1(  18)  ---------------------------------------


    POTLOK:  cpu time    0.1094: real time    0.1101
    SETDIJ:  cpu time    0.0019: real time    0.0019
     EDDAV:  cpu time    2.6631: real time    2.6830
 BZINTS: Fermi energy: -3.362788; 16.000000 electrons
         Band energy:-190.233931;  BLOECHL correction:  0.000000
       DOS:  cpu time    0.0071: real time    0.0071
    CHARGE:  cpu time    0.0921: real time    0.0934
    MIXING:  cpu time    0.0067: real time    0.0068
    --------------------------------------------
      LOOP:  cpu time    2.8804: real time    2.9024

 eigenvalue-minimisations  :   912
 total energy-change (2. order) :-0.5797365E-05  (-0.1819862E-07)
 number of electron      16.0000000 magnetization 
 augmentation part        0.3815597 magnetization 

 Broyden mixing:
  rms(total) = 0.59776E-04    rms(broyden)= 0.59774E-04
  rms(prec ) = 0.79199E-04
  weight for this iteration     100.00

 eigenvalues of (default mixing * dielectric matrix)
  average eigenvalue GAMMA=   2.8387
  8.4154  6.0094  4.3753  3.5166  2.8973  2.5154  2.1056  1.8995  1.1724  0.9584
  1.0037  1.0037  1.0302

 Free energy of the ion-electron system (eV)
  ---------------------------------------------------
  alpha Z        PSCENC =         6.24865773
  Ewald energy   TEWEN  =      2594.25031041
  -Hartree energ DENC   =     -3088.09622547
  -exchange      EXHF   =         0.00000000
  -V(xc)+E(xc)   XCENC  =        55.11397567
  PAW double counting   =      1719.64674627    -1722.35312448
  entropy T*S    EENTRO =         0.00000000
  eigenvalues    EBANDS =      -190.23393099
  atomic energy  EATOM  =       588.50889549
  Solvation  Ediel_sol  =         0.00000000
  ---------------------------------------------------
  free energy    TOTEN  =       -36.91469538 eV

  energy without entropy =      -36.91469538  energy(sigma->0) =      -36.91469538


--------------------------------------------------------------------------------------------------------




--------------------------------------- Iteration      1(  19)  ---------------------------------------


    POTLOK:  cpu time    0.1126: real time    0.1132
    SETDIJ:  cpu time    0.0018: real time    0.0018
     EDDAV:  cpu time    2.4927: real time    2.4972
 BZINTS: Fermi energy: -3.362788; 16.000000 electrons
         Band energy:-190.223198;  BLOECHL correction:  0.000000
       DOS:  cpu time    0.0051: real time    0.0051
    CHARGE:  cpu time    0.0883: real time    0.0886
    MIXING:  cpu time    0.0045: real time    0.0045
    --------------------------------------------
      LOOP:  cpu time    2.7050: real time    2.7103

 eigenvalue-minimisations  :   928
 total energy-change (2. order) :-0.6182207E-05  (-0.3490286E-08)
 number of electron      16.0000000 magnetization 
 augmentation part        0.3815605 magnetization 

 Broyden mixing:
  rms(total) = 0.63810E-04    rms(broyden)= 0.63810E-04
  rms(prec ) = 0.65074E-04
  weight for this iteration     100.00

 eigenvalues of (default mixing * dielectric matrix)
  average eigenvalue GAMMA=   2.7380
  8.4589  6.3419  4.7372  3.4345  2.6723  2.5013  2.1307  1.8734  1.2348  1.0414
  1.0136  1.0136  0.9391  0.9391

 Free energy of the ion-electron system (eV)
  ---------------------------------------------------
  alpha Z        PSCENC =         6.24865773
  Ewald energy   TEWEN  =      2594.25031041
  -Hartree energ DENC   =     -3088.10693500
  -exchange      EXHF   =         0.00000000
  -V(xc)+E(xc)   XCENC  =        55.11387158
  PAW double counting   =      1719.60166644    -1722.30797057
  entropy T*S    EENTRO =         0.00000000
  eigenvalues    EBANDS =      -190.22319763
  atomic energy  EATOM  =       588.50889549
  Solvation  Ediel_sol  =         0.00000000
  ---------------------------------------------------
  free energy    TOTEN  =       -36.91470156 eV

  energy without entropy =      -36.91470156  energy(sigma->0) =      -36.91470156


--------------------------------------------------------------------------------------------------------




--------------------------------------- Iteration      1(  20)  ---------------------------------------


    POTLOK:  cpu time    0.1063: real time    0.1066
    SETDIJ:  cpu time    0.0022: real time    0.0022
     EDDAV:  cpu time    2.6463: real time    2.6518
 BZINTS: Fermi energy: -3.362788; 16.000000 electrons
         Band energy:-190.220326;  BLOECHL correction:  0.000000
       DOS:  cpu time    0.0050: real time    0.0050
    --------------------------------------------
      LOOP:  cpu time    2.7597: real time    2.7656

 eigenvalue-minimisations  :  1016
 total energy-change (2. order) :-0.5097572E-06  (-0.2079986E-09)
 number of electron      16.0000000 magnetization 
 augmentation part        0.3815605 magnetization 

 Free energy of the ion-electron system (eV)
  ---------------------------------------------------
  alpha Z        PSCENC =         6.24865773
  Ewald energy   TEWEN  =      2594.25031041
  -Hartree energ DENC   =     -3088.10979499
  -exchange      EXHF   =         0.00000000
  -V(xc)+E(xc)   XCENC  =        55.11389789
  PAW double counting   =      1719.65393154    -1722.36027409
  entropy T*S    EENTRO =         0.00000000
  eigenvalues    EBANDS =      -190.22032604
  atomic energy  EATOM  =       588.50889549
  Solvation  Ediel_sol  =         0.00000000
  ---------------------------------------------------
  free energy    TOTEN  =       -36.91470207 eV

  energy without entropy =      -36.91470207  energy(sigma->0) =      -36.91470207


--------------------------------------------------------------------------------------------------------




 average (electrostatic) potential at core
  the test charge radii are     0.6991
  (the norm of the test charge is              1.0000)
       1 -58.1945       2 -58.1945       3 -58.1945       4 -58.1945



 E-fermi :  -3.3628     XC(G=0):  -2.1913     alpha+bet : -1.9059


 k-point     1 :       0.0000    0.0000    0.0000
  band No.  band energies     occupation 
      1     -22.2788      2.00000
      2     -17.0188      2.00000
      3     -15.9902      2.00000
      4     -10.3742      2.00000
      5      -9.1654      2.00000
      6      -5.7700      2.00000
      7      -5.7691      2.00000
      8      -5.0968      2.00000
      9      -1.0594      0.00000
     10       0.5157      0.00000
     11       1.3029      0.00000
     12       1.6174      0.00000
     13       2.5823      0.00000
     14       2.9791      0.00000
     15       4.6344      0.00000
     16       4.6755      0.00000
     17       5.3120      0.00000
     18       5.6075      0.00000
     19       5.6305      0.00000
     20       7.6405      0.00000
     21       8.3896      0.00000
     22       8.4254      0.00000
     23       8.5417      0.00000
     24       8.7352      0.00000
     25       9.2291      0.00000
     26       9.4286      0.00000
     27       9.7999      0.00000
     28       9.8489      0.00000
     29       9.8585      0.00000
     30      10.5731      0.00000
     31      10.7560      0.00000
     32      11.0861      0.00000

 k-point     2 :       0.2500    0.0000    0.0000
  band No.  band energies     occupation 
      1     -21.9092      2.00000
      2     -19.0190      2.00000
      3     -13.4491      2.00000
      4      -9.9333      2.00000
      5      -8.8022      2.00000
      6      -7.1523      2.00000
      7      -6.6561      2.00000
      8      -6.4770      2.00000
      9       1.0181      0.00000
     10       1.0621      0.00000
     11       1.8116      0.00000
     12       2.1324      0.00000
     13       3.0923      0.00000
     14       3.4881      0.00000
     15       4.7712      0.00000
     16       5.0821      0.00000
     17       5.1803      0.00000
     18       5.6363      0.00000
     19       5.8703      0.00000
     20       5.8748      0.00000
     21       6.2540      0.00000
     22       7.1206      0.00000
     23       7.1627      0.00000
     24       7.5073      0.00000
     25       7.5708      0.00000
     26       8.1374      0.00000
     27       8.9343      0.00000
     28       9.1804      0.00000
     29       9.8594      0.00000
     30      10.5263      0.00000
     31      11.8470      0.00000
     32      11.8994      0.00000

 k-point     3 :       0.5000    0.0000    0.0000
  band No.  band energies     occupation 
      1     -20.8100      2.00000
      2     -20.8100      2.00000
      3     -10.1655      2.00000
      4     -10.1655      2.00000
      5      -8.6414      2.00000
      6      -8.6414      2.00000
      7      -7.7922      2.00000
      8      -7.7922      2.00000
      9       2.5230      0.00000
     10       2.5230      0.00000
     11       3.3201      0.00000
     12       3.3201      0.00000
     13       3.6771      0.00000
     14       3.6771      0.00000
     15       4.4695      0.00000
     16       4.4695      0.00000
     17       4.7025      0.00000
     18       4.7025      0.00000
     19       4.9930      0.00000
     20       4.9930      0.00000
     21       5.3391      0.00000
     22       5.3391      0.00000
     23       6.6979      0.00000
     24       6.6979      0.00000
     25       7.3478      0.00000
     26       7.3478      0.00000
     27       9.6086      0.00000
     28       9.6086      0.00000
     29      10.4405      0.00000
     30      10.4405      0.00000
     31      10.7355      0.00000
     32      10.7355      0.00000

 k-point     4 :       0.0000    0.1250    0.0000
  band No.  band energies     occupation 
      1     -22.0020      2.00000
      2     -16.7813      2.00000
      3     -15.7603      2.00000
      4     -10.2763      2.00000
      5     -10.0434      2.00000
      6      -6.7956      2.00000
      7      -6.3608      2.00000
      8      -4.7598      2.00000
      9      -1.1664      0.00000
     10       0.8919      0.00000
     11       1.6840      0.00000
     12       2.0030      0.00000
     13       2.9643      0.00000
     14       3.3603      0.00000
     15       5.0538      0.00000
     16       5.6445      0.00000
     17       5.8535      0.00000
     18       6.1744      0.00000
     19       6.6562      0.00000
     20       7.8041      0.00000
     21       8.0118      0.00000
     22       8.7113      0.00000
     23       8.8074      0.00000
     24       8.8859      0.00000
     25       9.1237      0.00000
     26       9.8104      0.00000
     27      10.2300      0.00000
     28      10.2414      0.00000
     29      10.3482      0.00000
     30      10.7147      0.00000
     31      11.1395      0.00000
     32      11.4330      0.00000

 k-point     5 :       0.2500    0.1250    0.0000
  band No.  band energies     occupation 
      1     -21.6335      2.00000
      2     -18.7583      2.00000
      3     -13.2915      2.00000
      4      -9.8901      2.00000
      5      -9.6062      2.00000
      6      -7.9356      2.00000
      7      -7.0148      2.00000
      8      -6.3479      2.00000
      9       0.8892      0.00000
     10       1.3944      0.00000
     11       2.1919      0.00000
     12       2.5181      0.00000
     13       3.4735      0.00000
     14       3.8694      0.00000
     15       5.3848      0.00000
     16       5.5568      0.00000
     17       5.8955      0.00000
     18       6.2101      0.00000
     19       6.2436      0.00000
     20       6.3721      0.00000
     21       6.6428      0.00000
     22       6.6951      0.00000
     23       7.5072      0.00000
     24       7.7102      0.00000
     25       7.9508      0.00000
     26       8.5048      0.00000
     27       9.3136      0.00000
     28       9.4497      0.00000
     29      10.2278      0.00000
     30      11.2156      0.00000
     31      11.6551      0.00000
     32      11.6737      0.00000

 k-point     6 :       0.5000    0.1250    0.0000
  band No.  band energies     occupation 
      1     -20.5386      2.00000
      2     -20.5386      2.00000
      3     -10.2641      2.00000
      4     -10.2641      2.00000
      5      -8.7352      2.00000
      6      -8.7352      2.00000
      7      -8.3241      2.00000
      8      -8.3241      2.00000
      9       2.9001      0.00000
     10       2.9001      0.00000
     11       3.7000      0.00000
     12       3.7000      0.00000
     13       4.0631      0.00000
     14       4.0631      0.00000
     15       4.0666      0.00000
     16       4.0666      0.00000
     17       4.9978      0.00000
     18       4.9978      0.00000
     19       5.3965      0.00000
     20       5.3965      0.00000
     21       6.7067      0.00000
     22       6.7067      0.00000
     23       7.0546      0.00000
     24       7.0546      0.00000
     25       7.7345      0.00000
     26       7.7345      0.00000
     27       9.1268      0.00000
     28       9.1268      0.00000
     29       9.9350      0.00000
     30       9.9350      0.00000
     31      10.8208      0.00000
     32      10.8208      0.00000

 k-point     7 :       0.0000    0.2500    0.0000
  band No.  band energies     occupation 
      1     -21.1768      2.00000
      2     -16.0705      2.00000
      3     -15.2049      2.00000
      4     -12.4893      2.00000
      5      -9.0681      2.00000
      6      -8.9618      2.00000
      7      -7.8858      2.00000
      8      -3.7565      2.00000
      9      -1.7935      0.00000
     10       2.0205      0.00000
     11       2.8232      0.00000
     12       3.1599      0.00000
     13       4.1069      0.00000
     14       4.5045      0.00000
     15       5.5015      0.00000
     16       6.1818      0.00000
     17       6.4615      0.00000
     18       6.8812      0.00000
     19       8.1746      0.00000
     20       8.1835      0.00000
     21       9.1079      0.00000
     22       9.3853      0.00000
     23       9.5798      0.00000
     24       9.9056      0.00000
     25       9.9419      0.00000
     26      10.9544      0.00000
     27      11.3619      0.00000
     28      11.3854      0.00000
     29      11.5000      0.00000
     30      12.2891      0.00000
     31      12.3524      0.00000
     32      12.5382      0.00000

 k-point     8 :       0.2500    0.2500    0.0000
  band No.  band energies     occupation 
      1     -20.8119      2.00000
      2     -17.9867      2.00000
      3     -13.2787      2.00000
      4     -11.7003      2.00000
      5     -10.1723      2.00000
      6      -8.6442      2.00000
      7      -7.7832      2.00000
      8      -5.4819      2.00000
      9       0.0830      0.00000
     10       2.5203      0.00000
     11       3.3171      0.00000
     12       3.6745      0.00000
     13       4.4652      0.00000
     14       4.7017      0.00000
     15       4.9920      0.00000
     16       5.3585      0.00000
     17       6.4930      0.00000
     18       6.6956      0.00000
     19       7.1612      0.00000
     20       7.3454      0.00000
     21       7.7919      0.00000
     22       8.4808      0.00000
     23       9.0517      0.00000
     24       9.5494      0.00000
     25       9.6063      0.00000
     26       9.8915      0.00000
     27       9.9204      0.00000
     28      10.4379      0.00000
     29      10.7420      0.00000
     30      11.3531      0.00000
     31      11.4178      0.00000
     32      12.4567      0.00000

 k-point     9 :       0.5000    0.2500    0.0000
  band No.  band energies     occupation 
      1     -19.7307      2.00000
      2     -19.7307      2.00000
      3     -11.7624      2.00000
      4     -11.7624      2.00000
      5      -9.3987      2.00000
      6      -9.3987      2.00000
      7      -7.4040      2.00000
      8      -7.4040      2.00000
      9       2.4727      0.00000
     10       2.4727      0.00000
     11       4.0220      0.00000
     12       4.0220      0.00000
     13       4.8431      0.00000
     14       4.8431      0.00000
     15       5.2194      0.00000
     16       5.2194      0.00000
     17       6.1314      0.00000
     18       6.1314      0.00000
     19       6.4760      0.00000
     20       6.4760      0.00000
     21       6.6652      0.00000
     22       6.6652      0.00000
     23       8.1564      0.00000
     24       8.1564      0.00000
     25       8.8541      0.00000
     26       8.8541      0.00000
     27      10.5607      0.00000
     28      10.5607      0.00000
     29      10.9121      0.00000
     30      10.9121      0.00000
     31      11.9402      0.00000
     32      11.9402      0.00000

 k-point    10 :       0.0000    0.3750    0.0000
  band No.  band energies     occupation 
      1     -19.8228      2.00000
      2     -15.9038      2.00000
      3     -14.8937      2.00000
      4     -13.1351      2.00000
      5     -11.2483      2.00000
      6      -9.8178      2.00000
      7      -7.5029      2.00000
      8      -3.3677      2.00000
      9      -2.1195      0.00000
     10       2.7267      0.00000
     11       3.8951      0.00000
     12       4.7015      0.00000
     13       5.0878      0.00000
     14       5.9942      0.00000
     15       6.4093      0.00000
     16       7.7959      0.00000
     17       7.9381      0.00000
     18       8.0163      0.00000
     19       8.7455      0.00000
     20       9.1551      0.00000
     21       9.5320      0.00000
     22      10.3238      0.00000
     23      10.7286      0.00000
     24      10.7560      0.00000
     25      11.0817      0.00000
     26      11.2410      0.00000
     27      11.8102      0.00000
     28      12.2423      0.00000
     29      12.3170      0.00000
     30      12.8533      0.00000
     31      12.9880      0.00000
     32      13.1183      0.00000

 k-point    11 :       0.2500    0.3750    0.0000
  band No.  band energies     occupation 
      1     -19.4653      2.00000
      2     -16.8098      2.00000
      3     -15.1521      2.00000
      4     -12.6161      2.00000
      5     -11.3254      2.00000
      6      -8.8916      2.00000
      7      -7.1234      2.00000
      8      -4.5164      2.00000
      9      -1.1839      0.00000
     10       1.8479      0.00000
     11       4.3840      0.00000
     12       5.2347      0.00000
     13       5.3743      0.00000
     14       5.6103      0.00000
     15       6.5199      0.00000
     16       6.9317      0.00000
     17       7.7873      0.00000
     18       8.3105      0.00000
     19       8.5242      0.00000
     20       8.5477      0.00000
     21       9.2268      0.00000
     22       9.7139      0.00000
     23       9.8958      0.00000
     24      10.0623      0.00000
     25      10.8258      0.00000
     26      10.9532      0.00000
     27      11.3214      0.00000
     28      11.7439      0.00000
     29      11.7948      0.00000
     30      12.2340      0.00000
     31      12.4100      0.00000
     32      12.6674      0.00000

 k-point    12 :       0.5000    0.3750    0.0000
  band No.  band energies     occupation 
      1     -18.4162      2.00000
      2     -18.4162      2.00000
      3     -14.1845      2.00000
      4     -14.1845      2.00000
      5      -9.2500      2.00000
      6      -9.2500      2.00000
      7      -6.0466      2.00000
      8      -6.0466      2.00000
      9       0.2529      0.00000
     10       0.2529      0.00000
     11       5.1721      0.00000
     12       5.1721      0.00000
     13       5.9052      0.00000
     14       5.9052      0.00000
     15       6.7326      0.00000
     16       6.7326      0.00000
     17       7.1483      0.00000
     18       7.1483      0.00000
     19       8.0278      0.00000
     20       8.0278      0.00000
     21       8.4515      0.00000
     22       8.4515      0.00000
     23       9.9891      0.00000
     24       9.9891      0.00000
     25      10.7232      0.00000
     26      10.7232      0.00000
     27      11.4546      0.00000
     28      11.4546      0.00000
     29      12.0485      0.00000
     30      12.0485      0.00000
     31      12.9739      0.00000
     32      12.9740      0.00000

 k-point    13 :       0.0000    0.5000    0.0000
  band No.  band energies     occupation 
      1     -17.9927      2.00000
      2     -17.9927      2.00000
      3     -13.2699      2.00000
      4     -13.2699      2.00000
      5     -11.7037      2.00000
      6     -11.7037      2.00000
      7      -5.4889      2.00000
      8      -5.4889      2.00000
      9       0.0886      0.00000
     10       0.0886      0.00000
     11       6.4849      0.00000
     12       6.4849      0.00000
     13       7.1540      0.00000
     14       7.1540      0.00000
     15       7.7840      0.00000
     16       7.7840      0.00000
     17       8.4737      0.00000
     18       8.4737      0.00000
     19       9.0437      0.00000
     20       9.0437      0.00000
     21       9.5566      0.00000
     22       9.5566      0.00000
     23       9.8868      0.00000
     24       9.8868      0.00000
     25       9.9489      0.00000
     26       9.9489      0.00000
     27      11.3458      0.00000
     28      11.3458      0.00000
     29      11.4128      0.00000
     30      11.4128      0.00000
     31      13.9775      0.00000
     32      13.9775      0.00000

 k-point    14 :       0.2500    0.5000    0.0000
  band No.  band energies     occupation 
      1     -17.6650      2.00000
      2     -17.6650      2.00000
      3     -14.7594      2.00000
      4     -14.7594      2.00000
      5     -10.1698      2.00000
      6     -10.1698      2.00000
      7      -5.3144      2.00000
      8      -5.3144      2.00000
      9      -0.4988      0.00000
     10      -0.4988      0.00000
     11       6.2464      0.00000
     12       6.2464      0.00000
     13       6.9977      0.00000
     14       6.9977      0.00000
     15       7.7663      0.00000
     16       7.7663      0.00000
     17       8.3003      0.00000
     18       8.3003      0.00000
     19       9.0708      0.00000
     20       9.0708      0.00000
     21       9.5792      0.00000
     22       9.5792      0.00000
     23      10.5764      0.00000
     24      10.5764      0.00000
     25      10.6595      0.00000
     26      10.6595      0.00000
     27      11.5847      0.00000
     28      11.5847      0.00000
     29      11.8261      0.00000
     30      11.8261      0.00000
     31      12.3917      0.00000
     32      12.3917      0.00000

 k-point    15 :       0.5000    0.5000    0.0000
  band No.  band energies     occupation 
      1     -17.0320      2.00000
      2     -17.0320      2.00000
      3     -15.9873      2.00000
      4     -15.9873      2.00000
      5      -9.1525      2.00000
      6      -9.1525      2.00000
      7      -5.1091      2.00000
      8      -5.1091      2.00000
      9      -1.0564      0.00000
     10      -1.0564      0.00000
     11       4.6650      0.00000
     12       4.6650      0.00000
     13       8.3785      0.00000
     14       8.3785      0.00000
     15       8.5327      0.00000
     16       8.5327      0.00000
     17       9.2225      0.00000
     18       9.2225      0.00000
     19       9.4181      0.00000
     20       9.4181      0.00000
     21       9.8385      0.00000
     22       9.8385      0.00000
     23       9.8480      0.00000
     24       9.8480      0.00000
     25      10.5649      0.00000
     26      10.5649      0.00000
     27      10.7454      0.00000
     28      10.7454      0.00000
     29      11.0755      0.00000
     30      11.0755      0.00000
     31      11.1123      0.00000
     32      11.1123      0.00000


--------------------------------------------------------------------------------------------------------


 soft charge-density along one line, spin component           1
         0         1         2         3         4         5         6         7         8         9
 total charge-density along one line

 pseudopotential strength for first ion, spin component:           1
 10.217  13.587  -0.000  -0.000  -0.000   0.000   0.000   0.000
 13.587  18.068  -0.000  -0.000  -0.000   0.000   0.000   0.000
 -0.000  -0.000  -4.349   0.000  -0.000   8.506  -0.000   0.000
 -0.000  -0.000   0.000  -4.341  -0.000  -0.000   8.497   0.000
 -0.000  -0.000  -0.000  -0.000  -4.349   0.000   0.000   8.506
  0.000   0.000   8.506  -0.000   0.000 -18.775   0.000  -0.000
  0.000   0.000  -0.000   8.497   0.000   0.000 -18.766  -0.000
  0.000   0.000   0.000   0.000   8.506  -0.000  -0.000 -18.775
 total augmentation occupancy for first ion, spin component:           1
  8.288  -3.699   0.000  -0.000   0.003   0.000   0.000   0.000
 -3.699   1.706   0.000   0.000  -0.002  -0.000   0.000  -0.000
  0.000  -0.000   1.833  -0.000  -0.000   0.173  -0.000   0.000
 -0.000  -0.000  -0.000   1.211  -0.000   0.000   0.077   0.000
  0.003  -0.002  -0.000   0.000   1.835   0.000   0.000   0.173
  0.000  -0.000   0.173   0.000  -0.000   0.018  -0.000   0.000
  0.000   0.000  -0.000   0.077   0.000   0.000   0.005   0.000
  0.000  -0.000  -0.000   0.000   0.173   0.000  -0.000   0.018


------------------------ aborting loop because EDIFF is reached ----------------------------------------





 total charge     

# of ion       s       p       d       tot
------------------------------------------
    1        0.867   1.793   0.000   2.659
    2        0.867   1.793   0.000   2.659
    3        0.867   1.793   0.000   2.659
    4        0.867   1.793   0.000   2.659
--------------------------------------------------
tot          3.467   7.170   0.000  10.638

    CHARGE:  cpu time    0.0907: real time    0.0913
    FORLOC:  cpu time    0.0097: real time    0.0097
    FORNL :  cpu time    0.7392: real time    0.7404
    STRESS:  cpu time    0.9737: real time    0.9747
    FORCOR:  cpu time    0.1175: real time    0.1176
    FORHAR:  cpu time    0.0298: real time    0.0298
    MIXING:  cpu time    0.0077: real time    0.0077
    OFIELD:  cpu time    0.0000: real time    0.0000

  FORCE on cell =-STRESS in cart. coord.  units (eV):
  Direction    XX          YY          ZZ          XY          YZ          ZX
  --------------------------------------------------------------------------------------
  Alpha Z     6.24866     6.24866     6.24866
  Ewald    3132.56493  3132.23555 -3670.55045     0.00000     0.00000     0.00000
  Hartree  3065.55456  3065.48172 -3042.92621    -0.00000    -0.00000    -0.00000
  E(xc)     -59.44660   -59.44665   -61.67640    -0.00000    -0.00000    -0.00000
  Local   -6369.42846 -6369.07121  6507.87552    -0.00000    -0.00000    -0.00000
  n-local   -14.24332   -14.21651   -12.97512     0.05421    -0.00000    -0.00000
  augment    -1.55085    -1.55159    -1.42951    -0.00000     0.00000     0.00000
  Kinetic   240.29181   240.34902   274.86870    -3.17631     0.00000     0.00000
  Fock        0.00000     0.00000     0.00000     0.00000     0.00000     0.00000
  -------------------------------------------------------------------------------------
  Total      -0.00928     0.02899    -0.56480     0.00000     0.00000     0.00000
  in kB      -0.07070     0.22083    -4.30214     0.00000     0.00000     0.00000
  external pressure =       -1.38 kB  Pullay stress =        0.00 kB


 VOLUME and BASIS-vectors are now :
 -----------------------------------------------------------------------------
  energy-cutoff  :      400.00
  volume of cell :      210.34
      direct lattice vectors                 reciprocal lattice vectors
     4.266220405  0.000000000  0.000000000     0.234399516  0.000000000  0.000000000
     0.000000000  2.465188698  0.000000000     0.000000000  0.405648461  0.000000000
     0.000000000  0.000000000 20.000000000     0.000000000  0.000000000  0.050000000

  length of vectors
     4.266220405  2.465188698 20.000000000     0.234399516  0.405648461  0.050000000


 FORCES acting on ions
    electron-ion (+dipol)            ewald-force                    non-local-force                 convergence-correction
 -----------------------------------------------------------------------------------------------
   0.208E+00 -.566E-09 0.808E-06   -.207E+00 0.235E-07 -.796E-20   -.548E-03 -.347E-17 0.000E+00   0.535E-04 -.851E-13 -.153E-13
   -.208E+00 -.566E-09 -.808E-06   0.207E+00 0.235E-07 0.403E-17   0.548E-03 0.104E-16 0.000E+00   -.535E-04 -.933E-13 -.145E-13
   -.208E+00 -.184E-07 -.808E-06   0.207E+00 -.235E-07 -.480E-17   0.548E-03 -.347E-17 -.388E-25   -.535E-04 0.891E-13 -.145E-13
   0.208E+00 -.184E-07 0.808E-06   -.207E+00 -.235E-07 0.779E-18   -.548E-03 0.347E-17 0.000E+00   0.535E-04 0.973E-13 -.148E-13
 -----------------------------------------------------------------------------------------------
   -.380E-07 -.380E-07 0.125E-11   0.638E-15 -.768E-14 0.000E+00   0.108E-18 0.694E-17 -.388E-25   0.264E-13 0.799E-14 -.591E-13


 POSITION                                       TOTAL-FORCE (eV/Angst)
 -----------------------------------------------------------------------------------
      1.42213      0.00000     10.00000         0.001177      0.000000      0.000000
      2.84409      0.00000     10.00000        -0.001177      0.000000     -0.000000
      0.71098      1.23259     10.00000        -0.001177      0.000000     -0.000000
      3.55524      1.23259     10.00000         0.001177     -0.000000      0.000000
 -----------------------------------------------------------------------------------
    total drift:                               -0.000000     -0.000000      0.000000


--------------------------------------------------------------------------------------------------------



  FREE ENERGIE OF THE ION-ELECTRON SYSTEM (eV)
  ---------------------------------------------------
  free  energy   TOTEN  =       -36.91470207 eV

  energy  without entropy=      -36.91470207  energy(sigma->0) =      -36.91470207



--------------------------------------------------------------------------------------------------------


    POTLOK:  cpu time    0.1154: real time    0.1155


--------------------------------------------------------------------------------------------------------


 writing wavefunctions
     LOOP+:  cpu time   66.0475: real time   67.3023
    4ORBIT:  cpu time    0.0000: real time    0.0000



 total charge     

# of ion       s       p       d       tot
------------------------------------------
    1        0.867   1.793   0.000   2.659
    2        0.867   1.793   0.000   2.659
    3        0.867   1.793   0.000   2.659
    4        0.867   1.793   0.000   2.659
--------------------------------------------------
tot          3.467   7.170   0.000  10.638

 BZINTS: Fermi energy: -3.362788; 16.000000 electrons
         Band energy:-190.220326;  BLOECHL correction:  0.000000

 total amount of memory used by VASP MPI-rank0    72317. kBytes
=======================================================================

   base      :      30000. kBytes
   nonl-proj :       3969. kBytes
   fftplans  :       8715. kBytes
   grid      :      14615. kBytes
   one-center:         12. kBytes
   wavefun   :      15006. kBytes

  
  
 General timing and accounting informations for this job:
 ========================================================
  
                  Total CPU time used (sec):       68.171
                            User time (sec):       67.433
                          System time (sec):        0.737
                         Elapsed time (sec):       69.739
  
                   Maximum memory used (kb):    88141824.
                   Average memory used (kb):           0.
  
                          Minor page faults:        22438
                          Major page faults:          896
                 Voluntary context switches:         3765
