PROCAR lm decomposed
# of k-points:   15         # of bands:   32         # of ions:    4

 k-point     1 :    0.00000000 0.00000000 0.00000000     weight = 0.03125000

band     1 # energy  -22.27884492 # occ.  2.00000000

ion      s     py     pz     px    dxy    dyz    dz2    dxz  x2-y2    tot
    1  0.162  0.000  0.000  0.000  0.000  0.000  0.000  0.000  0.000  0.162
    2  0.162  0.000  0.000  0.000  0.000  0.000  0.000  0.000  0.000  0.162
    3  0.162  0.000  0.000  0.000  0.000  0.000  0.000  0.000  0.000  0.162
    4  0.162  0.000  0.000  0.000  0.000  0.000  0.000  0.000  0.000  0.162
tot    0.646  0.000  0.000  0.000  0.000  0.000  0.000  0.000  0.000  0.646

band     2 # energy  -17.01876680 # occ.  2.00000000

ion      s     py     pz     px    dxy    dyz    dz2    dxz  x2-y2    tot
    1  0.150  0.000  0.000  0.032  0.000  0.000  0.000  0.000  0.000  0.182
    2  0.150  0.000  0.000  0.032  0.000  0.000  0.000  0.000  0.000  0.182
    3  0.150  0.000  0.000  0.032  0.000  0.000  0.000  0.000  0.000  0.182
    4  0.150  0.000  0.000  0.032  0.000  0.000  0.000  0.000  0.000  0.182
tot    0.600  0.000  0.000  0.127  0.000  0.000  0.000  0.000  0.000  0.727

band     3 # energy  -15.99017197 # occ.  2.00000000

ion      s     py     pz     px    dxy    dyz    dz2    dxz  x2-y2    tot
    1  0.069  0.000  0.000  0.098  0.000  0.000  0.000  0.000  0.000  0.167
    2  0.069  0.000  0.000  0.098  0.000  0.000  0.000  0.000  0.000  0.167
    3  0.069  0.000  0.000  0.098  0.000  0.000  0.000  0.000  0.000  0.167
    4  0.069  0.000  0.000  0.098  0.000  0.000  0.000  0.000  0.000  0.167
tot    0.277  0.000  0.000  0.393  0.000  0.000  0.000  0.000  0.000  0.670

band     4 # energy  -10.37420432 # occ.  2.00000000

ion      s     py     pz     px    dxy    dyz    dz2    dxz  x2-y2    tot
    1  0.000  0.000  0.108  0.000  0.000  0.000  0.000  0.000  0.000  0.108
    2  0.000  0.000  0.108  0.000  0.000  0.000  0.000  0.000  0.000  0.108
    3  0.000  0.000  0.108  0.000  0.000  0.000  0.000  0.000  0.000  0.108
    4  0.000  0.000  0.108  0.000  0.000  0.000  0.000  0.000  0.000  0.108
tot    0.000  0.000  0.432  0.000  0.000  0.000  0.000  0.000  0.000  0.432

band     5 # energy   -9.16537307 # occ.  2.00000000

ion      s     py     pz     px    dxy    dyz    dz2    dxz  x2-y2    tot
    1  0.000  0.197  0.000  0.000  0.000  0.000  0.000  0.000  0.000  0.197
    2  0.000  0.197  0.000  0.000  0.000  0.000  0.000  0.000  0.000  0.197
    3  0.000  0.197  0.000  0.000  0.000  0.000  0.000  0.000  0.000  0.197
    4  0.000  0.197  0.000  0.000  0.000  0.000  0.000  0.000  0.000  0.197
tot    0.000  0.787  0.000  0.000  0.000  0.000  0.000  0.000  0.000  0.787

band     6 # energy   -5.77001993 # occ.  2.00000000

ion      s     py     pz     px    dxy    dyz    dz2    dxz  x2-y2    tot
    1  0.000  0.207  0.000  0.000  0.000  0.000  0.000  0.000  0.000  0.207
    2  0.000  0.207  0.000  0.000  0.000  0.000  0.000  0.000  0.000  0.207
    3  0.000  0.207  0.000  0.000  0.000  0.000  0.000  0.000  0.000  0.207
    4  0.000  0.207  0.000  0.000  0.000  0.000  0.000  0.000  0.000  0.207
tot    0.000  0.827  0.000  0.000  0.000  0.000  0.000  0.000  0.000  0.827

band     7 # energy   -5.76914780 # occ.  2.00000000

ion      s     py     pz     px    dxy    dyz    dz2    dxz  x2-y2    tot
    1  0.000  0.000  0.000  0.207  0.000  0.000  0.000  0.000  0.000  0.207
    2  0.000  0.000  0.000  0.207  0.000  0.000  0.000  0.000  0.000  0.207
    3  0.000  0.000  0.000  0.207  0.000  0.000  0.000  0.000  0.000  0.207
    4  0.000  0.000  0.000  0.207  0.000  0.000  0.000  0.000  0.000  0.207
tot    0.000  0.000  0.000  0.827  0.000  0.000  0.000  0.000  0.000  0.827

band     8 # energy   -5.09682989 # occ.  2.00000000

ion      s     py     pz     px    dxy    dyz    dz2    dxz  x2-y2    tot
    1  0.000  0.000  0.128  0.000  0.000  0.000  0.000  0.000  0.000  0.128
    2  0.000  0.000  0.128  0.000  0.000  0.000  0.000  0.000  0.000  0.128
    3  0.000  0.000  0.128  0.000  0.000  0.000  0.000  0.000  0.000  0.128
    4  0.000  0.000  0.128  0.000  0.000  0.000  0.000  0.000  0.000  0.128
tot    0.000  0.000  0.512  0.000  0.000  0.000  0.000  0.000  0.000  0.512

band     9 # energy   -1.05941320 # occ.  0.00000000

ion      s     py     pz     px    dxy    dyz    dz2    dxz  x2-y2    tot
    1  0.000  0.000  0.112  0.000  0.000  0.000  0.000  0.000  0.000  0.112
    2  0.000  0.000  0.112  0.000  0.000  0.000  0.000  0.000  0.000  0.112
    3  0.000  0.000  0.112  0.000  0.000  0.000  0.000  0.000  0.000  0.112
    4  0.000  0.000  0.112  0.000  0.000  0.000  0.000  0.000  0.000  0.112
tot    0.000  0.000  0.450  0.000  0.000  0.000  0.000  0.000  0.000  0.450

band    10 # energy    0.51567495 # occ.  0.00000000

ion      s     py     pz     px    dxy    dyz    dz2    dxz  x2-y2    tot
    1  0.005  0.000  0.000  0.000  0.000  0.000  0.000  0.000  0.000  0.005
    2  0.005  0.000  0.000  0.000  0.000  0.000  0.000  0.000  0.000  0.005
    3  0.005  0.000  0.000  0.000  0.000  0.000  0.000  0.000  0.000  0.005
    4  0.005  0.000  0.000  0.000  0.000  0.000  0.000  0.000  0.000  0.005
tot    0.020  0.000  0.000  0.000  0.000  0.000  0.000  0.000  0.000  0.020

band    11 # energy    1.30292925 # occ.  0.00000000

ion      s     py     pz     px    dxy    dyz    dz2    dxz  x2-y2    tot
    1  0.000  0.000  0.005  0.000  0.000  0.000  0.000  0.000  0.000  0.005
    2  0.000  0.000  0.005  0.000  0.000  0.000  0.000  0.000  0.000  0.005
    3  0.000  0.000  0.005  0.000  0.000  0.000  0.000  0.000  0.000  0.005
    4  0.000  0.000  0.005  0.000  0.000  0.000  0.000  0.000  0.000  0.005
tot    0.000  0.000  0.022  0.000  0.000  0.000  0.000  0.000  0.000  0.022

band    12 # energy    1.61744807 # occ.  0.00000000

ion      s     py     pz     px    dxy    dyz    dz2    dxz  x2-y2    tot
    1  0.000  0.000  0.000  0.000  0.000  0.000  0.000  0.000  0.000  0.000
    2  0.000  0.000  0.000  0.000  0.000  0.000  0.000  0.000  0.000  0.000
    3  0.000  0.000  0.000  0.000  0.000  0.000  0.000  0.000  0.000  0.000
    4  0.000  0.000  0.000  0.000  0.000  0.000  0.000  0.000  0.000  0.000
tot    0.002  0.000  0.000  0.000  0.000  0.000  0.000  0.000  0.000  0.002

band    13 # energy    2.58231137 # occ.  0.00000000

ion      s     py     pz     px    dxy    dyz    dz2    dxz  x2-y2    tot
    1  0.000  0.000  0.004  0.000  0.000  0.000  0.000  0.000  0.000  0.004
    2  0.000  0.000  0.004  0.000  0.000  0.000  0.000  0.000  0.000  0.004
    3  0.000  0.000  0.004  0.000  0.000  0.000  0.000  0.000  0.000  0.004
    4  0.000  0.000  0.004  0.000  0.000  0.000  0.000  0.000  0.000  0.004
tot    0.000  0.000  0.017  0.000  0.000  0.000  0.000  0.000  0.000  0.017

band    14 # energy    2.97914452 # occ.  0.00000000

ion      s     py     pz     px    dxy    dyz    dz2    dxz  x2-y2    tot
    1  0.002  0.000  0.000  0.000  0.000  0.000  0.000  0.000  0.000  0.002
    2  0.002  0.000  0.000  0.000  0.000  0.000  0.000  0.000  0.000  0.002
    3  0.002  0.000  0.000  0.000  0.000  0.000  0.000  0.000  0.000  0.002
    4  0.002  0.000  0.000  0.000  0.000  0.000  0.000  0.000  0.000  0.002
tot    0.008  0.000  0.000  0.000  0.000  0.000  0.000  0.000  0.000  0.008

band    15 # energy    4.63438964 # occ.  0.00000000

ion      s     py     pz     px    dxy    dyz    dz2    dxz  x2-y2    tot
    1  0.092  0.000  0.000  0.020  0.000  0.000  0.000  0.000  0.000  0.113
    2  0.092  0.000  0.000  0.020  0.000  0.000  0.000  0.000  0.000  0.113
    3  0.092  0.000  0.000  0.020  0.000  0.000  0.000  0.000  0.000  0.113
    4  0.092  0.000  0.000  0.020  0.000  0.000  0.000  0.000  0.000  0.113
tot    0.370  0.000  0.000  0.081  0.000  0.000  0.000  0.000  0.000  0.451

band    16 # energy    4.67546670 # occ.  0.00000000

ion      s     py     pz     px    dxy    dyz    dz2    dxz  x2-y2    tot
    1  0.000  0.000  0.006  0.000  0.000  0.000  0.000  0.000  0.000  0.006
    2  0.000  0.000  0.006  0.000  0.000  0.000  0.000  0.000  0.000  0.006
    3  0.000  0.000  0.006  0.000  0.000  0.000  0.000  0.000  0.000  0.006
    4  0.000  0.000  0.006  0.000  0.000  0.000  0.000  0.000  0.000  0.006
tot    0.000  0.000  0.025  0.000  0.000  0.000  0.000  0.000  0.000  0.025

band    17 # energy    5.31200030 # occ.  0.00000000

ion      s     py     pz     px    dxy    dyz    dz2    dxz  x2-y2    tot
    1  0.003  0.000  0.000  0.000  0.000  0.000  0.000  0.000  0.000  0.003
    2  0.003  0.000  0.000  0.000  0.000  0.000  0.000  0.000  0.000  0.003
    3  0.003  0.000  0.000  0.000  0.000  0.000  0.000  0.000  0.000  0.003
    4  0.003  0.000  0.000  0.000  0.000  0.000  0.000  0.000  0.000  0.003
tot    0.011  0.000  0.000  0.000  0.000  0.000  0.000  0.000  0.000  0.011

band    18 # energy    5.60752808 # occ.  0.00000000

ion      s     py     pz     px    dxy    dyz    dz2    dxz  x2-y2    tot
    1  0.000  0.132  0.000  0.000  0.000  0.000  0.000  0.000  0.000  0.132
    2  0.000  0.132  0.000  0.000  0.000  0.000  0.000  0.000  0.000  0.132
    3  0.000  0.132  0.000  0.000  0.000  0.000  0.000  0.000  0.000  0.132
    4  0.000  0.132  0.000  0.000  0.000  0.000  0.000  0.000  0.000  0.132
tot    0.000  0.527  0.000  0.000  0.000  0.000  0.000  0.000  0.000  0.527

band    19 # energy    5.63054693 # occ.  0.00000000

ion      s     py     pz     px    dxy    dyz    dz2    dxz  x2-y2    tot
    1  0.000  0.000  0.000  0.132  0.000  0.000  0.000  0.000  0.000  0.132
    2  0.000  0.000  0.000  0.132  0.000  0.000  0.000  0.000  0.000  0.132
    3  0.000  0.000  0.000  0.132  0.000  0.000  0.000  0.000  0.000  0.132
    4  0.000  0.000  0.000  0.132  0.000  0.000  0.000  0.000  0.000  0.132
tot    0.000  0.000  0.000  0.527  0.000  0.000  0.000  0.000  0.000  0.527

band    20 # energy    7.64046323 # occ.  0.00000000

ion      s     py     pz     px    dxy    dyz    dz2    dxz  x2-y2    tot
    1  0.000  0.000  0.009  0.000  0.000  0.000  0.000  0.000  0.000  0.009
    2  0.000  0.000  0.009  0.000  0.000  0.000  0.000  0.000  0.000  0.009
    3  0.000  0.000  0.009  0.000  0.000  0.000  0.000  0.000  0.000  0.009
    4  0.000  0.000  0.009  0.000  0.000  0.000  0.000  0.000  0.000  0.009
tot    0.000  0.000  0.035  0.000  0.000  0.000  0.000  0.000  0.000  0.035

band    21 # energy    8.38958130 # occ.  0.00000000

ion      s     py     pz     px    dxy    dyz    dz2    dxz  x2-y2    tot
    1  0.002  0.000  0.000  0.007  0.000  0.000  0.000  0.000  0.000  0.009
    2  0.002  0.000  0.000  0.007  0.000  0.000  0.000  0.000  0.000  0.009
    3  0.002  0.000  0.000  0.007  0.000  0.000  0.000  0.000  0.000  0.009
    4  0.002  0.000  0.000  0.007  0.000  0.000  0.000  0.000  0.000  0.009
tot    0.009  0.000  0.000  0.028  0.000  0.000  0.000  0.000  0.000  0.037

band    22 # energy    8.42540227 # occ.  0.00000000

ion      s     py     pz     px    dxy    dyz    dz2    dxz  x2-y2    tot
    1  0.003  0.000  0.000  0.000  0.000  0.000  0.000  0.000  0.000  0.003
    2  0.003  0.000  0.000  0.000  0.000  0.000  0.000  0.000  0.000  0.003
    3  0.003  0.000  0.000  0.000  0.000  0.000  0.000  0.000  0.000  0.003
    4  0.003  0.000  0.000  0.000  0.000  0.000  0.000  0.000  0.000  0.003
tot    0.012  0.000  0.000  0.000  0.000  0.000  0.000  0.000  0.000  0.012

band    23 # energy    8.54170034 # occ.  0.00000000

ion      s     py     pz     px    dxy    dyz    dz2    dxz  x2-y2    tot
    1  0.001  0.000  0.000  0.008  0.000  0.000  0.000  0.000  0.000  0.009
    2  0.001  0.000  0.000  0.008  0.000  0.000  0.000  0.000  0.000  0.009
    3  0.001  0.000  0.000  0.008  0.000  0.000  0.000  0.000  0.000  0.009
    4  0.001  0.000  0.000  0.008  0.000  0.000  0.000  0.000  0.000  0.009
tot    0.004  0.000  0.000  0.032  0.000  0.000  0.000  0.000  0.000  0.035

band    24 # energy    8.73523506 # occ.  0.00000000

ion      s     py     pz     px    dxy    dyz    dz2    dxz  x2-y2    tot
    1  0.000  0.000  0.196  0.000  0.000  0.000  0.000  0.000  0.000  0.196
    2  0.000  0.000  0.196  0.000  0.000  0.000  0.000  0.000  0.000  0.196
    3  0.000  0.000  0.196  0.000  0.000  0.000  0.000  0.000  0.000  0.196
    4  0.000  0.000  0.196  0.000  0.000  0.000  0.000  0.000  0.000  0.196
tot    0.000  0.000  0.783  0.000  0.000  0.000  0.000  0.000  0.000  0.783

band    25 # energy    9.22907991 # occ.  0.00000000

ion      s     py     pz     px    dxy    dyz    dz2    dxz  x2-y2    tot
    1  0.000  0.000  0.019  0.000  0.000  0.000  0.000  0.000  0.000  0.019
    2  0.000  0.000  0.019  0.000  0.000  0.000  0.000  0.000  0.000  0.019
    3  0.000  0.000  0.019  0.000  0.000  0.000  0.000  0.000  0.000  0.019
    4  0.000  0.000  0.019  0.000  0.000  0.000  0.000  0.000  0.000  0.019
tot    0.000  0.000  0.075  0.000  0.000  0.000  0.000  0.000  0.000  0.075

band    26 # energy    9.42859447 # occ.  0.00000000

ion      s     py     pz     px    dxy    dyz    dz2    dxz  x2-y2    tot
    1  0.000  0.000  0.006  0.000  0.000  0.000  0.000  0.000  0.000  0.006
    2  0.000  0.000  0.006  0.000  0.000  0.000  0.000  0.000  0.000  0.006
    3  0.000  0.000  0.006  0.000  0.000  0.000  0.000  0.000  0.000  0.006
    4  0.000  0.000  0.006  0.000  0.000  0.000  0.000  0.000  0.000  0.006
tot    0.000  0.000  0.023  0.000  0.000  0.000  0.000  0.000  0.000  0.023

band    27 # energy    9.79993947 # occ.  0.00000000

ion      s     py     pz     px    dxy    dyz    dz2    dxz  x2-y2    tot
    1  0.179  0.000  0.000  0.000  0.000  0.000  0.000  0.000  0.000  0.179
    2  0.179  0.000  0.000  0.000  0.000  0.000  0.000  0.000  0.000  0.179
    3  0.179  0.000  0.000  0.000  0.000  0.000  0.000  0.000  0.000  0.179
    4  0.179  0.000  0.000  0.000  0.000  0.000  0.000  0.000  0.000  0.179
tot    0.716  0.000  0.000  0.000  0.000  0.000  0.000  0.000  0.000  0.716

band    28 # energy    9.84886727 # occ.  0.00000000

ion      s     py     pz     px    dxy    dyz    dz2    dxz  x2-y2    tot
    1  0.000  0.000  0.000  0.001  0.000  0.000  0.000  0.000  0.000  0.001
    2  0.000  0.000  0.000  0.001  0.000  0.000  0.000  0.000  0.000  0.001
    3  0.000  0.000  0.000  0.001  0.000  0.000  0.000  0.000  0.000  0.001
    4  0.000  0.000  0.000  0.001  0.000  0.000  0.000  0.000  0.000  0.001
tot    0.000  0.000  0.000  0.002  0.000  0.000  0.000  0.000  0.000  0.003

band    29 # energy    9.85846730 # occ.  0.00000000

ion      s     py     pz     px    dxy    dyz    dz2    dxz  x2-y2    tot
    1  0.000  0.000  0.000  0.001  0.000  0.000  0.000  0.000  0.000  0.001
    2  0.000  0.000  0.000  0.001  0.000  0.000  0.000  0.000  0.000  0.001
    3  0.000  0.000  0.000  0.001  0.000  0.000  0.000  0.000  0.000  0.001
    4  0.000  0.000  0.000  0.001  0.000  0.000  0.000  0.000  0.000  0.001
tot    0.000  0.000  0.000  0.003  0.000  0.000  0.000  0.000  0.000  0.003

band    30 # energy   10.57313345 # occ.  0.00000000

ion      s     py     pz     px    dxy    dyz    dz2    dxz  x2-y2    tot
    1  0.000  0.000  0.009  0.000  0.000  0.000  0.000  0.000  0.000  0.009
    2  0.000  0.000  0.009  0.000  0.000  0.000  0.000  0.000  0.000  0.009
    3  0.000  0.000  0.009  0.000  0.000  0.000  0.000  0.000  0.000  0.009
    4  0.000  0.000  0.009  0.000  0.000  0.000  0.000  0.000  0.000  0.009
tot    0.000  0.000  0.036  0.000  0.000  0.000  0.000  0.000  0.000  0.036

band    31 # energy   10.75600646 # occ.  0.00000000

ion      s     py     pz     px    dxy    dyz    dz2    dxz  x2-y2    tot
    1  0.000  0.000  0.004  0.000  0.000  0.000  0.000  0.000  0.000  0.004
    2  0.000  0.000  0.004  0.000  0.000  0.000  0.000  0.000  0.000  0.004
    3  0.000  0.000  0.004  0.000  0.000  0.000  0.000  0.000  0.000  0.004
    4  0.000  0.000  0.004  0.000  0.000  0.000  0.000  0.000  0.000  0.004
tot    0.000  0.000  0.014  0.000  0.000  0.000  0.000  0.000  0.000  0.014

band    32 # energy   11.08614197 # occ.  0.00000000

ion      s     py     pz     px    dxy    dyz    dz2    dxz  x2-y2    tot
    1  0.000  0.000  0.000  0.003  0.000  0.000  0.000  0.000  0.000  0.004
    2  0.000  0.000  0.000  0.003  0.000  0.000  0.000  0.000  0.000  0.004
    3  0.000  0.000  0.000  0.003  0.000  0.000  0.000  0.000  0.000  0.004
    4  0.000  0.000  0.000  0.003  0.000  0.000  0.000  0.000  0.000  0.004
tot    0.002  0.000  0.000  0.013  0.000  0.000  0.000  0.000  0.000  0.015


 k-point     2 :    0.25000000 0.00000000 0.00000000     weight = 0.06250000

band     1 # energy  -21.90923764 # occ.  2.00000000

ion      s     py     pz     px    dxy    dyz    dz2    dxz  x2-y2    tot
    1  0.159  0.000  0.000  0.004  0.000  0.000  0.000  0.000  0.000  0.163
    2  0.159  0.000  0.000  0.004  0.000  0.000  0.000  0.000  0.000  0.163
    3  0.159  0.000  0.000  0.004  0.000  0.000  0.000  0.000  0.000  0.163
    4  0.159  0.000  0.000  0.004  0.000  0.000  0.000  0.000  0.000  0.163
tot    0.634  0.000  0.000  0.016  0.000  0.000  0.000  0.000  0.000  0.650

band     2 # energy  -19.01897890 # occ.  2.00000000

ion      s     py     pz     px    dxy    dyz    dz2    dxz  x2-y2    tot
    1  0.138  0.000  0.000  0.033  0.000  0.000  0.000  0.000  0.000  0.170
    2  0.138  0.000  0.000  0.033  0.000  0.000  0.000  0.000  0.000  0.170
    3  0.138  0.000  0.000  0.033  0.000  0.000  0.000  0.000  0.000  0.170
    4  0.138  0.000  0.000  0.033  0.000  0.000  0.000  0.000  0.000  0.170
tot    0.551  0.000  0.000  0.130  0.000  0.000  0.000  0.000  0.000  0.681

band     3 # energy  -13.44914558 # occ.  2.00000000

ion      s     py     pz     px    dxy    dyz    dz2    dxz  x2-y2    tot
    1  0.077  0.000  0.000  0.104  0.000  0.000  0.000  0.000  0.000  0.180
    2  0.077  0.000  0.000  0.104  0.000  0.000  0.000  0.000  0.000  0.180
    3  0.077  0.000  0.000  0.104  0.000  0.000  0.000  0.000  0.000  0.180
    4  0.077  0.000  0.000  0.104  0.000  0.000  0.000  0.000  0.000  0.180
tot    0.306  0.000  0.000  0.415  0.000  0.000  0.000  0.000  0.000  0.722

band     4 # energy   -9.93330594 # occ.  2.00000000

ion      s     py     pz     px    dxy    dyz    dz2    dxz  x2-y2    tot
    1  0.000  0.000  0.109  0.000  0.000  0.000  0.000  0.000  0.000  0.109
    2  0.000  0.000  0.109  0.000  0.000  0.000  0.000  0.000  0.000  0.109
    3  0.000  0.000  0.109  0.000  0.000  0.000  0.000  0.000  0.000  0.109
    4  0.000  0.000  0.109  0.000  0.000  0.000  0.000  0.000  0.000  0.109
tot    0.000  0.000  0.435  0.000  0.000  0.000  0.000  0.000  0.000  0.435

band     5 # energy   -8.80219554 # occ.  2.00000000

ion      s     py     pz     px    dxy    dyz    dz2    dxz  x2-y2    tot
    1  0.000  0.197  0.000  0.000  0.000  0.000  0.000  0.000  0.000  0.197
    2  0.000  0.197  0.000  0.000  0.000  0.000  0.000  0.000  0.000  0.197
    3  0.000  0.197  0.000  0.000  0.000  0.000  0.000  0.000  0.000  0.197
    4  0.000  0.197  0.000  0.000  0.000  0.000  0.000  0.000  0.000  0.197
tot    0.000  0.788  0.000  0.000  0.000  0.000  0.000  0.000  0.000  0.788

band     6 # energy   -7.15232526 # occ.  2.00000000

ion      s     py     pz     px    dxy    dyz    dz2    dxz  x2-y2    tot
    1  0.019  0.000  0.000  0.182  0.000  0.000  0.000  0.000  0.000  0.201
    2  0.019  0.000  0.000  0.182  0.000  0.000  0.000  0.000  0.000  0.201
    3  0.019  0.000  0.000  0.182  0.000  0.000  0.000  0.000  0.000  0.201
    4  0.019  0.000  0.000  0.182  0.000  0.000  0.000  0.000  0.000  0.201
tot    0.074  0.000  0.000  0.729  0.000  0.000  0.000  0.000  0.000  0.803

band     7 # energy   -6.65610500 # occ.  2.00000000

ion      s     py     pz     px    dxy    dyz    dz2    dxz  x2-y2    tot
    1  0.000  0.000  0.118  0.000  0.000  0.000  0.000  0.000  0.000  0.118
    2  0.000  0.000  0.118  0.000  0.000  0.000  0.000  0.000  0.000  0.118
    3  0.000  0.000  0.118  0.000  0.000  0.000  0.000  0.000  0.000  0.118
    4  0.000  0.000  0.118  0.000  0.000  0.000  0.000  0.000  0.000  0.118
tot    0.000  0.000  0.472  0.000  0.000  0.000  0.000  0.000  0.000  0.472

band     8 # energy   -6.47701028 # occ.  2.00000000

ion      s     py     pz     px    dxy    dyz    dz2    dxz  x2-y2    tot
    1  0.000  0.203  0.000  0.000  0.000  0.000  0.000  0.000  0.000  0.203
    2  0.000  0.203  0.000  0.000  0.000  0.000  0.000  0.000  0.000  0.203
    3  0.000  0.203  0.000  0.000  0.000  0.000  0.000  0.000  0.000  0.203
    4  0.000  0.203  0.000  0.000  0.000  0.000  0.000  0.000  0.000  0.203
tot    0.000  0.811  0.000  0.000  0.000  0.000  0.000  0.000  0.000  0.811

band     9 # energy    1.01814699 # occ.  0.00000000

ion      s     py     pz     px    dxy    dyz    dz2    dxz  x2-y2    tot
    1  0.005  0.000  0.000  0.000  0.000  0.000  0.000  0.000  0.000  0.005
    2  0.005  0.000  0.000  0.000  0.000  0.000  0.000  0.000  0.000  0.005
    3  0.005  0.000  0.000  0.000  0.000  0.000  0.000  0.000  0.000  0.005
    4  0.005  0.000  0.000  0.000  0.000  0.000  0.000  0.000  0.000  0.005
tot    0.018  0.000  0.000  0.002  0.000  0.000  0.000  0.000  0.000  0.020

band    10 # energy    1.06206031 # occ.  0.00000000

ion      s     py     pz     px    dxy    dyz    dz2    dxz  x2-y2    tot
    1  0.000  0.000  0.128  0.000  0.000  0.000  0.000  0.000  0.000  0.128
    2  0.000  0.000  0.128  0.000  0.000  0.000  0.000  0.000  0.000  0.128
    3  0.000  0.000  0.128  0.000  0.000  0.000  0.000  0.000  0.000  0.128
    4  0.000  0.000  0.128  0.000  0.000  0.000  0.000  0.000  0.000  0.128
tot    0.000  0.000  0.514  0.000  0.000  0.000  0.000  0.000  0.000  0.514

band    11 # energy    1.81164612 # occ.  0.00000000

ion      s     py     pz     px    dxy    dyz    dz2    dxz  x2-y2    tot
    1  0.000  0.000  0.006  0.000  0.000  0.000  0.000  0.000  0.000  0.006
    2  0.000  0.000  0.006  0.000  0.000  0.000  0.000  0.000  0.000  0.006
    3  0.000  0.000  0.006  0.000  0.000  0.000  0.000  0.000  0.000  0.006
    4  0.000  0.000  0.006  0.000  0.000  0.000  0.000  0.000  0.000  0.006
tot    0.000  0.000  0.022  0.000  0.000  0.000  0.000  0.000  0.000  0.022

band    12 # energy    2.13243321 # occ.  0.00000000

ion      s     py     pz     px    dxy    dyz    dz2    dxz  x2-y2    tot
    1  0.000  0.000  0.000  0.000  0.000  0.000  0.000  0.000  0.000  0.000
    2  0.000  0.000  0.000  0.000  0.000  0.000  0.000  0.000  0.000  0.000
    3  0.000  0.000  0.000  0.000  0.000  0.000  0.000  0.000  0.000  0.000
    4  0.000  0.000  0.000  0.000  0.000  0.000  0.000  0.000  0.000  0.000
tot    0.002  0.000  0.000  0.000  0.000  0.000  0.000  0.000  0.000  0.002

band    13 # energy    3.09225296 # occ.  0.00000000

ion      s     py     pz     px    dxy    dyz    dz2    dxz  x2-y2    tot
    1  0.000  0.000  0.004  0.000  0.000  0.000  0.000  0.000  0.000  0.004
    2  0.000  0.000  0.004  0.000  0.000  0.000  0.000  0.000  0.000  0.004
    3  0.000  0.000  0.004  0.000  0.000  0.000  0.000  0.000  0.000  0.004
    4  0.000  0.000  0.004  0.000  0.000  0.000  0.000  0.000  0.000  0.004
tot    0.000  0.000  0.017  0.000  0.000  0.000  0.000  0.000  0.000  0.017

band    14 # energy    3.48811450 # occ.  0.00000000

ion      s     py     pz     px    dxy    dyz    dz2    dxz  x2-y2    tot
    1  0.002  0.000  0.000  0.000  0.000  0.000  0.000  0.000  0.000  0.002
    2  0.002  0.000  0.000  0.000  0.000  0.000  0.000  0.000  0.000  0.002
    3  0.002  0.000  0.000  0.000  0.000  0.000  0.000  0.000  0.000  0.002
    4  0.002  0.000  0.000  0.000  0.000  0.000  0.000  0.000  0.000  0.002
tot    0.006  0.000  0.000  0.002  0.000  0.000  0.000  0.000  0.000  0.008

band    15 # energy    4.77123697 # occ.  0.00000000

ion      s     py     pz     px    dxy    dyz    dz2    dxz  x2-y2    tot
    1  0.064  0.000  0.000  0.032  0.000  0.000  0.000  0.000  0.000  0.096
    2  0.064  0.000  0.000  0.032  0.000  0.000  0.000  0.000  0.000  0.096
    3  0.064  0.000  0.000  0.032  0.000  0.000  0.000  0.000  0.000  0.096
    4  0.064  0.000  0.000  0.032  0.000  0.000  0.000  0.000  0.000  0.096
tot    0.257  0.000  0.000  0.126  0.000  0.000  0.000  0.000  0.000  0.383

band    16 # energy    5.08208550 # occ.  0.00000000

ion      s     py     pz     px    dxy    dyz    dz2    dxz  x2-y2    tot
    1  0.023  0.000  0.000  0.001  0.000  0.000  0.000  0.000  0.000  0.024
    2  0.023  0.000  0.000  0.001  0.000  0.000  0.000  0.000  0.000  0.024
    3  0.023  0.000  0.000  0.001  0.000  0.000  0.000  0.000  0.000  0.024
    4  0.023  0.000  0.000  0.001  0.000  0.000  0.000  0.000  0.000  0.024
tot    0.094  0.000  0.000  0.002  0.000  0.000  0.000  0.000  0.000  0.096

band    17 # energy    5.18030718 # occ.  0.00000000

ion      s     py     pz     px    dxy    dyz    dz2    dxz  x2-y2    tot
    1  0.000  0.000  0.006  0.000  0.000  0.000  0.000  0.000  0.000  0.006
    2  0.000  0.000  0.006  0.000  0.000  0.000  0.000  0.000  0.000  0.006
    3  0.000  0.000  0.006  0.000  0.000  0.000  0.000  0.000  0.000  0.006
    4  0.000  0.000  0.006  0.000  0.000  0.000  0.000  0.000  0.000  0.006
tot    0.000  0.000  0.026  0.000  0.000  0.000  0.000  0.000  0.000  0.026

band    18 # energy    5.63628305 # occ.  0.00000000

ion      s     py     pz     px    dxy    dyz    dz2    dxz  x2-y2    tot
    1  0.010  0.000  0.000  0.088  0.000  0.000  0.000  0.000  0.000  0.098
    2  0.010  0.000  0.000  0.088  0.000  0.000  0.000  0.000  0.000  0.098
    3  0.010  0.000  0.000  0.088  0.000  0.000  0.000  0.000  0.000  0.098
    4  0.010  0.000  0.000  0.088  0.000  0.000  0.000  0.000  0.000  0.098
tot    0.042  0.000  0.000  0.352  0.000  0.000  0.000  0.000  0.000  0.394

band    19 # energy    5.87033521 # occ.  0.00000000

ion      s     py     pz     px    dxy    dyz    dz2    dxz  x2-y2    tot
    1  0.010  0.000  0.000  0.020  0.000  0.000  0.000  0.000  0.000  0.030
    2  0.010  0.000  0.000  0.020  0.000  0.000  0.000  0.000  0.000  0.030
    3  0.010  0.000  0.000  0.020  0.000  0.000  0.000  0.000  0.000  0.030
    4  0.010  0.000  0.000  0.020  0.000  0.000  0.000  0.000  0.000  0.030
tot    0.039  0.000  0.000  0.080  0.000  0.000  0.000  0.000  0.000  0.119

band    20 # energy    5.87478802 # occ.  0.00000000

ion      s     py     pz     px    dxy    dyz    dz2    dxz  x2-y2    tot
    1  0.000  0.000  0.008  0.000  0.000  0.000  0.000  0.000  0.000  0.008
    2  0.000  0.000  0.008  0.000  0.000  0.000  0.000  0.000  0.000  0.008
    3  0.000  0.000  0.008  0.000  0.000  0.000  0.000  0.000  0.000  0.008
    4  0.000  0.000  0.008  0.000  0.000  0.000  0.000  0.000  0.000  0.008
tot    0.000  0.000  0.032  0.000  0.000  0.000  0.000  0.000  0.000  0.032

band    21 # energy    6.25397742 # occ.  0.00000000

ion      s     py     pz     px    dxy    dyz    dz2    dxz  x2-y2    tot
    1  0.000  0.000  0.000  0.000  0.000  0.000  0.000  0.000  0.000  0.001
    2  0.000  0.000  0.000  0.000  0.000  0.000  0.000  0.000  0.000  0.001
    3  0.000  0.000  0.000  0.000  0.000  0.000  0.000  0.000  0.000  0.001
    4  0.000  0.000  0.000  0.000  0.000  0.000  0.000  0.000  0.000  0.001
tot    0.002  0.000  0.000  0.001  0.000  0.000  0.000  0.000  0.000  0.002

band    22 # energy    7.12058844 # occ.  0.00000000

ion      s     py     pz     px    dxy    dyz    dz2    dxz  x2-y2    tot
    1  0.000  0.138  0.000  0.000  0.000  0.000  0.000  0.000  0.000  0.138
    2  0.000  0.138  0.000  0.000  0.000  0.000  0.000  0.000  0.000  0.138
    3  0.000  0.138  0.000  0.000  0.000  0.000  0.000  0.000  0.000  0.138
    4  0.000  0.138  0.000  0.000  0.000  0.000  0.000  0.000  0.000  0.138
tot    0.000  0.551  0.000  0.000  0.000  0.000  0.000  0.000  0.000  0.551

band    23 # energy    7.16271733 # occ.  0.00000000

ion      s     py     pz     px    dxy    dyz    dz2    dxz  x2-y2    tot
    1  0.000  0.000  0.005  0.000  0.000  0.000  0.000  0.000  0.000  0.005
    2  0.000  0.000  0.005  0.000  0.000  0.000  0.000  0.000  0.000  0.005
    3  0.000  0.000  0.005  0.000  0.000  0.000  0.000  0.000  0.000  0.005
    4  0.000  0.000  0.005  0.000  0.000  0.000  0.000  0.000  0.000  0.005
tot    0.000  0.000  0.022  0.000  0.000  0.000  0.000  0.000  0.000  0.022

band    24 # energy    7.50728917 # occ.  0.00000000

ion      s     py     pz     px    dxy    dyz    dz2    dxz  x2-y2    tot
    1  0.000  0.000  0.181  0.000  0.000  0.000  0.000  0.000  0.000  0.181
    2  0.000  0.000  0.181  0.000  0.000  0.000  0.000  0.000  0.000  0.181
    3  0.000  0.000  0.181  0.000  0.000  0.000  0.000  0.000  0.000  0.181
    4  0.000  0.000  0.181  0.000  0.000  0.000  0.000  0.000  0.000  0.181
tot    0.000  0.000  0.725  0.000  0.000  0.000  0.000  0.000  0.000  0.725

band    25 # energy    7.57080283 # occ.  0.00000000

ion      s     py     pz     px    dxy    dyz    dz2    dxz  x2-y2    tot
    1  0.001  0.000  0.000  0.001  0.000  0.000  0.000  0.000  0.000  0.002
    2  0.001  0.000  0.000  0.001  0.000  0.000  0.000  0.000  0.000  0.002
    3  0.001  0.000  0.000  0.001  0.000  0.000  0.000  0.000  0.000  0.002
    4  0.001  0.000  0.000  0.001  0.000  0.000  0.000  0.000  0.000  0.002
tot    0.006  0.000  0.000  0.004  0.000  0.000  0.000  0.000  0.000  0.010

band    26 # energy    8.13740447 # occ.  0.00000000

ion      s     py     pz     px    dxy    dyz    dz2    dxz  x2-y2    tot
    1  0.000  0.000  0.009  0.000  0.000  0.000  0.000  0.000  0.000  0.009
    2  0.000  0.000  0.009  0.000  0.000  0.000  0.000  0.000  0.000  0.009
    3  0.000  0.000  0.009  0.000  0.000  0.000  0.000  0.000  0.000  0.009
    4  0.000  0.000  0.009  0.000  0.000  0.000  0.000  0.000  0.000  0.009
tot    0.000  0.000  0.038  0.000  0.000  0.000  0.000  0.000  0.000  0.038

band    27 # energy    8.93431901 # occ.  0.00000000

ion      s     py     pz     px    dxy    dyz    dz2    dxz  x2-y2    tot
    1  0.003  0.000  0.000  0.000  0.000  0.000  0.000  0.000  0.000  0.003