C                                       
           1
     4.266220    0.000000    0.000000
     0.000000    2.465189    0.000000
     0.000000    0.000000   20.000000
   C 
   4
Direct configuration=     1
   0.33334688  0.00000000  0.50000000
   0.66665312  0.00000000  0.50000000
   0.16665312  0.50000000  0.50000000
   0.83334688  0.50000000  0.50000000
