written on  1Apr2018 at 07:07:16
          8
        729
   1    1    1    1    1    1    1    1    1    1    1    1    1    1    1
   1    1    1    1    1    1    1    1    1    1    1    1    1    1    1
   1    1    1    1    1    1    1    1    1    1    1    1    1    1    1
   1    1    1    1    1    1    1    1    1    1    1    1    1    1    1
   1    1    1    1    1    1    1    1    1    1    1    1    1    1    1
   1    1    1    1    1    1    1    1    1    1    1    1    1    1    1
   1    1    1    1    1    1    1    1    1    1    1    1    1    1    1
   1    1    1    1    1    1    1    1    1    1    1    1    1    1    1
   1    1    1    1    1    1    1    1    1    1    1    1    1    1    1
   1    1    1    1    1    1    1    1    1    1    1    1    1    1    1
   1    1    1    1    1    1    1    1    1    1    1    1    1    1    1
   1    1    1    1    1    1    1    1    1    1    1    1    1    1    1
   1    1    1    1    1    1    1    1    1    1    1    1    1    1    1
   1    1    1    1    1    1    1    1    1    1    1    1    1    1    1
   1    1    1    1    1    1    1    1    1    1    1    1    1    1    1
   1    1    1    1    1    1    1    1    1    1    1    1    1    1    1
   1    1    1    1    1    1    1    1    1    1    1    1    1    1    1
   1    1    1    1    1    1    1    1    1    1    1    1    1    1    1
   1    1    1    1    1    1    1    1    1    1    1    1    1    1    1
   1    1    1    1    1    1    1    1    1    1    1    1    1    1    1
   1    1    1    1    1    1    1    1    1    1    1    1    1    1    1
   1    1    1    1    1    1    1    1    1    1    1    1    1    1    1
   1    1    1    1    1    1    1    1    1    1    1    1    1    1    1
   1    1    1    1    1    1    1    1    1    1    1    1    1    1    1
   1    1    1    1    1    1    1    1    1    1    1    1    1    1    1
   1    1    1    1    1    1    1    1    1    1    1    1    1    1    1
   1    1    1    1    1    1    1    1    1    1    1    1    1    1    1
   1    1    1    1    1    1    1    1    1    1    1    1    1    1    1
   1    1    1    1    1    1    1    1    1    1    1    1    1    1    1
   1    1    1    1    1    1    1    1    1    1    1    1    1    1    1
   1    1    1    1    1    1    1    1    1    1    1    1    1    1    1
   1    1    1    1    1    1    1    1    1    1    1    1    1    1    1
   1    1    1    1    1    1    1    1    1    1    1    1    1    1    1
   1    1    1    1    1    1    1    1    1    1    1    1    1    1    1
   1    1    1    1    1    1    1    1    1    1    1    1    1    1    1
   1    1    1    1    1    1    1    1    1    1    1    1    1    1    1
   1    1    1    1    1    1    1    1    1    1    1    1    1    1    1
   1    1    1    1    1    1    1    1    1    1    1    1    1    1    1
   1    1    1    1    1    1    1    1    1    1    1    1    1    1    1
   1    1    1    1    1    1    1    1    1    1    1    1    1    1    1
   1    1    1    1    1    1    1    1    1    1    1    1    1    1    1
   1    1    1    1    1    1    1    1    1    1    1    1    1    1    1
   1    1    1    1    1    1    1    1    1    1    1    1    1    1    1
   1    1    1    1    1    1    1    1    1    1    1    1    1    1    1
   1    1    1    1    1    1    1    1    1    1    1    1    1    1    1
   1    1    1    1    1    1    1    1    1    1    1    1    1    1    1
   1    1    1    1    1    1    1    1    1    1    1    1    1    1    1
   1    1    1    1    1    1    1    1    1    1    1    1    1    1    1
   1    1    1    1    1    1    1    1    1
-4	-4	-4	1	1	-0.000565	0.000000
-4	-4	-4	2	1	0.000116	0.000000
-4	-4	-4	3	1	0.000119	-0.000009
-4	-4	-4	4	1	0.000117	0.000009
-4	-4	-4	5	1	0.000000	0.000000
-4	-4	-4	6	1	0.000009	0.000009
-4	-4	-4	7	1	-0.000009	0.000000
-4	-4	-4	8	1	0.000000	-0.000009
-4	-4	-4	1	2	-0.000116	0.000000
-4	-4	-4	2	2	0.000142	0.000000
-4	-4	-4	3	2	0.000074	-0.000016
-4	-4	-4	4	2	0.000073	0.000016
-4	-4	-4	5	2	0.000009	0.000009
-4	-4	-4	6	2	0.000000	0.000000
-4	-4	-4	7	2	0.000034	-0.000016
-4	-4	-4	8	2	-0.000016	0.000034
-4	-4	-4	1	3	-0.000119	-0.000009
-4	-4	-4	2	3	0.000074	0.000016
-4	-4	-4	3	3	0.000146	0.000000
-4	-4	-4	4	3	0.000075	-0.000033
-4	-4	-4	5	3	-0.000009	0.000000
-4	-4	-4	6	3	-0.000034	0.000016
-4	-4	-4	7	3	0.000000	0.000000
-4	-4	-4	8	3	0.000016	-0.000016
-4	-4	-4	1	4	-0.000117	0.000009
-4	-4	-4	2	4	0.000073	-0.000016
-4	-4	-4	3	4	0.000075	0.000033
-4	-4	-4	4	4	0.000144	0.000000
-4	-4	-4	5	4	0.000000	-0.000009
-4	-4	-4	6	4	0.000016	-0.000034
-4	-4	-4	7	4	-0.000016	0.000016
-4	-4	-4	8	4	0.000000	0.000000
-4	-4	-4	1	5	0.000000	0.000000
-4	-4	-4	2	5	-0.000009	0.000009
-4	-4	-4	3	5	0.000009	0.000000
-4	-4	-4	4	5	0.000000	-0.000009
-4	-4	-4	5	5	-0.000565	0.000000
-4	-4	-4	6	5	0.000116	0.000000
-4	-4	-4	7	5	0.000119	0.000009
-4	-4	-4	8	5	0.000117	-0.000009
-4	-4	-4	1	6	-0.000009	0.000009
-4	-4	-4	2	6	0.000000	0.000000
-4	-4	-4	3	6	-0.000034	-0.000016
-4	-4	-4	4	6	0.000016	0.000034
-4	-4	-4	5	6	-0.000116	0.000000
-4	-4	-4	6	6	0.000142	0.000000
-4	-4	-4	7	6	0.000074	0.000016
-4	-4	-4	8	6	0.000073	-0.000016
-4	-4	-4	1	7	0.000009	0.000000
-4	-4	-4	2	7	0.000034	0.000016
-4	-4	-4	3	7	0.000000	0.000000
-4	-4	-4	4	7	-0.000016	-0.000016
-4	-4	-4	5	7	-0.000119	0.000009
-4	-4	-4	6	7	0.000074	-0.000016
-4	-4	-4	7	7	0.000146	0.000000
-4	-4	-4	8	7	0.000075	0.000033
-4	-4	-4	1	8	0.000000	-0.000009
-4	-4	-4	2	8	-0.000016	-0.000034
-4	-4	-4	3	8	0.000016	0.000016
-4	-4	-4	4	8	0.000000	0.000000
-4	-4	-4	5	8	-0.000117	-0.000009
-4	-4	-4	6	8	0.000073	0.000016
-4	-4	-4	7	8	0.000075	-0.000033
-4	-4	-4	8	8	0.000144	0.000000
-4	-4	-3	1	1	-0.000568	0.000000
-4	-4	-3	2	1	0.000235	0.000000
-4	-4	-3	3	1	0.000025	0.000001
-4	-4	-3	4	1	0.000025	-0.000001
-4	-4	-3	5	1	0.000000	0.000000
-4	-4	-3	6	1	-0.000004	-0.000004
-4	-4	-3	7	1	-0.000008	-0.000006
-4	-4	-3	8	1	-0.000006	-0.000007
-4	-4	-3	1	2	-0.000235	0.000000
-4	-4	-3	2	2	0.000196	0.000000
-4	-4	-3	3	2	-0.000011	-0.000009
-4	-4	-3	4	2	-0.000011	0.000009
-4	-4	-3	5	2	-0.000004	-0.000004
-4	-4	-3	6	2	0.000000	0.000000
-4	-4	-3	7	2	0.000008	0.000002
-4	-4	-3	8	2	0.000002	0.000008
-4	-4	-3	1	3	-0.000025	0.000001
-4	-4	-3	2	3	-0.000011	0.000009
-4	-4	-3	3	3	0.000198	0.000000
-4	-4	-3	4	3	-0.000093	0.000054
-4	-4	-3	5	3	-0.000008	-0.000006
-4	-4	-3	6	3	-0.000008	-0.000002
-4	-4	-3	7	3	0.000000	0.000000
-4	-4	-3	8	3	-0.000003	0.000003
-4	-4	-3	1	4	-0.000025	-0.000001
-4	-4	-3	2	4	-0.000011	-0.000009
-4	-4	-3	3	4	-0.000093	-0.000054
-4	-4	-3	4	4	0.000201	0.000000
-4	-4	-3	5	4	-0.000006	-0.000007
-4	-4	-3	6	4	-0.000002	-0.000008
-4	-4	-3	7	4	0.000003	-0.000003
-4	-4	-3	8	4	0.000000	0.000000
-4	-4	-3	1	5	0.000000	0.000000
-4	-4	-3	2	5	0.000004	-0.000004
-4	-4	-3	3	5	0.000008	-0.000006
-4	-4	-3	4	5	0.000006	-0.000007
-4	-4	-3	5	5	-0.000568	0.000000
-4	-4	-3	6	5	0.000235	0.000000
-4	-4	-3	7	5	0.000025	-0.000001
-4	-4	-3	8	5	0.000025	0.000001
-4	-4	-3	1	6	0.000004	-0.000004
-4	-4	-3	2	6	0.000000	0.000000
-4	-4	-3	3	6	-0.000008	0.000002
-4	-4	-3	4	6	-0.000002	0.000008
-4	-4	-3	5	6	-0.000235	0.000000
-4	-4	-3	6	6	0.000196	0.000000
-4	-4	-3	7	6	-0.000011	0.000009
-4	-4	-3	8	6	-0.000011	-0.000009
-4	-4	-3	1	7	0.000008	-0.000006
-4	-4	-3	2	7	0.000008	-0.000002
-4	-4	-3	3	7	0.000000	0.000000
-4	-4	-3	4	7	0.000003	0.000003
-4	-4	-3	5	7	-0.000025	-0.000001
-4	-4	-3	6	7	-0.000011	-0.000009
-4	-4	-3	7	7	0.000198	0.000000
-4	-4	-3	8	7	-0.000093	-0.000054
-4	-4	-3	1	8	0.000006	-0.000007
-4	-4	-3	2	8	0.000002	-0.000008
-4	-4	-3	3	8	-0.000003	-0.000003
-4	-4	-3	4	8	0.000000	0.000000
-4	-4	-3	5	8	-0.000025	0.000001
-4	-4	-3	6	8	-0.000011	0.000009
-4	-4	-3	7	8	-0.000093	0.000054
-4	-4	-3	8	8	0.000201	0.000000
-4	-4	-2	1	1	-0.000697	0.000000
-4	-4	-2	2	1	0.000449	0.000000
-4	-4	-2	3	1	0.000035	-0.000020
-4	-4	-2	4	1	0.000034	0.000020
-4	-4	-2	5	1	0.000000	0.000000
-4	-4	-2	6	1	-0.000004	-0.000004
-4	-4	-2	7	1	-0.000025	0.000013
-4	-4	-2	8	1	0.000014	-0.000026
-4	-4	-2	1	2	-0.000449	0.000000
-4	-4	-2	2	2	0.000117	0.000000
-4	-4	-2	3	2	0.000096	-0.000004
-4	-4	-2	4	2	0.000095	0.000004
-4	-4	-2	5	2	-0.000004	-0.000004
-4	-4	-2	6	2	0.000000	0.000000
-4	-4	-2	7	2	-0.000013	-0.000009
-4	-4	-2	8	2	-0.000009	-0.000013
-4	-4	-2	1	3	-0.000035	-0.000020
-4	-4	-2	2	3	0.000096	0.000004
-4	-4	-2	3	3	0.000278	0.000000
-4	-4	-2	4	3	-0.000014	0.000005
-4	-4	-2	5	3	-0.000025	0.000013
-4	-4	-2	6	3	0.000013	0.000009
-4	-4	-2	7	3	0.000000	0.000000
-4	-4	-2	8	3	-0.000006	0.000007
-4	-4	-2	1	4	-0.000034	0.000020
-4	-4	-2	2	4	0.000095	-0.000004
-4	-4	-2	3	4	-0.000014	-0.000005
-4	-4	-2	4	4	0.000278	0.000000
-4	-4	-2	5	4	0.000014	-0.000026
-4	-4	-2	6	4	0.000009	0.000013
-4	-4	-2	7	4	0.000006	-0.000007
-4	-4	-2	8	4	0.000000	0.000000
-4	-4	-2	1	5	0.000000	0.000000
-4	-4	-2	2	5	0.000004	-0.000004
-4	-4	-2	3	5	0.000025	0.000013
-4	-4	-2	4	5	-0.000014	-0.000026
-4	-4	-2	5	5	-0.000697	0.000000
-4	-4	-2	6	5	0.000449	0.000000
-4	-4	-2	7	5	0.000035	0.000020
-4	-4	-2	8	5	0.000034	-0.000020
-4	-4	-2	1	6	0.000004	-0.000004
-4	-4	-2	2	6	0.000000	0.000000
-4	-4	-2	3	6	0.000013	-0.000009
-4	-4	-2	4	6	0.000009	-0.000013
-4	-4	-2	5	6	-0.000449	0.000000
-4	-4	-2	6	6	0.000117	0.000000
-4	-4	-2	7	6	0.000096	0.000004
-4	-4	-2	8	6	0.000095	-0.000004
-4	-4	-2	1	7	0.000025	0.000013
-4	-4	-2	2	7	-0.000013	0.000009
-4	-4	-2	3	7	0.000000	0.000000
-4	-4	-2	4	7	0.000006	0.000007
-4	-4	-2	5	7	-0.000035	0.000020
-4	-4	-2	6	7	0.000096	-0.000004
-4	-4	-2	7	7	0.000278	0.000000
-4	-4	-2	8	7	-0.000014	-0.000005
-4	-4	-2	1	8	-0.000014	-0.000026
-4	-4	-2	2	8	-0.000009	0.000013
-4	-4	-2	3	8	-0.000006	-0.000007
-4	-4	-2	4	8	0.000000	0.000000
-4	-4	-2	5	8	-0.000034	-0.000020
-4	-4	-2	6	8	0.000095	0.000004
-4	-4	-2	7	8	-0.000014	0.000005
-4	-4	-2	8	8	0.000278	0.000000
-4	-4	-1	1	1	-0.001584	0.000000
-4	-4	-1	2	1	0.000674	0.000000
-4	-4	-1	3	1	0.000284	-0.000025
-4	-4	-1	4	1	0.000280	0.000026
-4	-4	-1	5	1	0.000000	0.000000
-4	-4	-1	6	1	-0.000004	-0.000005
-4	-4	-1	7	1	-0.000037	0.000003
-4	-4	-1	8	1	0.000003	-0.000037
-4	-4	-1	1	2	-0.000674	0.000000
-4	-4	-1	2	2	-0.000206	0.000000
-4	-4	-1	3	2	0.000165	0.000002
-4	-4	-1	4	2	0.000163	-0.000003
-4	-4	-1	5	2	-0.000004	-0.000005
-4	-4	-1	6	2	0.000000	0.000000
-4	-4	-1	7	2	0.000007	-0.000006
-4	-4	-1	8	2	-0.000006	0.000007
-4	-4	-1	1	3	-0.000284	-0.000025
-4	-4	-1	2	3	0.000165	-0.000002
-4	-4	-1	3	3	0.000836	0.000000
-4	-4	-1	4	3	0.000224	-0.000020
-4	-4	-1	5	3	-0.000037	0.000003
-4	-4	-1	6	3	-0.000007	0.000006
-4	-4	-1	7	3	0.000000	0.000000
-4	-4	-1	8	3	-0.000020	0.000021
-4	-4	-1	1	4	-0.000280	0.000026
-4	-4	-1	2	4	0.000163	0.000003
-4	-4	-1	3	4	0.000224	0.000020
-4	-4	-1	4	4	0.000830	0.000000
-4	-4	-1	5	4	0.000003	-0.000037
-4	-4	-1	6	4	0.000006	-0.000007
-4	-4	-1	7	4	0.000020	-0.000021
-4	-4	-1	8	4	0.000000	0.000000
-4	-4	-1	1	5	0.000000	0.000000
-4	-4	-1	2	5	0.000004	-0.000005
-4	-4	-1	3	5	0.000037	0.000003
-4	-4	-1	4	5	-0.000003	-0.000037
-4	-4	-1	5	5	-0.001584	0.000000
-4	-4	-1	6	5	0.000674	0.000000
-4	-4	-1	7	5	0.000284	0.000025
-4	-4	-1	8	5	0.000280	-0.000026
-4	-4	-1	1	6	0.000004	-0.000005
-4	-4	-1	2	6	0.000000	0.000000
-4	-4	-1	3	6	-0.000007	-0.000006
-4	-4	-1	4	6	0.000006	0.000007
-4	-4	-1	5	6	-0.000674	0.000000
-4	-4	-1	6	6	-0.000206	0.000000
-4	-4	-1	7	6	0.000165	-0.000002
-4	-4	-1	8	6	0.000163	0.000003
-4	-4	-1	1	7	0.000037	0.000003
-4	-4	-1	2	7	0.000007	0.000006
-4	-4	-1	3	7	0.000000	0.000000
-4	-4	-1	4	7	0.000020	0.000021
-4	-4	-1	5	7	-0.000284	0.000025
-4	-4	-1	6	7	0.000165	0.000002
-4	-4	-1	7	7	0.000836	0.000000
-4	-4	-1	8	7	0.000224	0.000020
-4	-4	-1	1	8	-0.000003	-0.000037
-4	-4	-1	2	8	-0.000006	-0.000007
-4	-4	-1	3	8	-0.000020	-0.000021
-4	-4	-1	4	8	0.000000	0.000000
-4	-4	-1	5	8	-0.000280	-0.000026
-4	-4	-1	6	8	0.000163	-0.000003
-4	-4	-1	7	8	0.000224	-0.000020
-4	-4	-1	8	8	0.000830	0.000000
-4	-4	0	1	1	-0.002993	0.000000
-4	-4	0	2	1	0.000035	0.000000
-4	-4	0	3	1	0.000604	0.000012
-4	-4	0	4	1	0.000596	-0.000011
-4	-4	0	5	1	0.000000	0.000000
-4	-4	0	6	1	0.000002	0.000001
-4	-4	0	7	1	0.000003	0.000002
-4	-4	0	8	1	0.000002	0.000003
-4	-4	0	1	2	-0.000035	0.000000
-4	-4	0	2	2	-0.000450	0.000000
-4	-4	0	3	2	-0.000020	-0.000002
-4	-4	0	4	2	-0.000019	0.000002
-4	-4	0	5	2	0.000002	0.000001
-4	-4	0	6	2	0.000000	0.000000
-4	-4	0	7	2	0.000024	0.000031
-4	-4	0	8	2	0.000030	0.000023
-4	-4	0	1	3	-0.000604	0.000012
-4	-4	0	2	3	-0.000020	0.000002
-4	-4	0	3	3	0.001392	0.000000
-4	-4	0	4	3	-0.000088	0.000126
-4	-4	0	5	3	0.000003	0.000002
-4	-4	0	6	3	-0.000024	-0.000031
-4	-4	0	7	3	0.000000	0.000000
-4	-4	0	8	3	0.000007	-0.000007
-4	-4	0	1	4	-0.000596	-0.000011
-4	-4	0	2	4	-0.000019	-0.000002
-4	-4	0	3	4	-0.000088	-0.000126
-4	-4	0	4	4	0.001396	0.000000
-4	-4	0	5	4	0.000002	0.000003
-4	-4	0	6	4	-0.000030	-0.000023
-4	-4	0	7	4	-0.000007	0.000007
-4	-4	0	8	4	0.000000	0.000000
-4	-4	0	1	5	0.000000	0.000000
-4	-4	0	2	5	-0.000002	0.000001
-4	-4	0	3	5	-0.000003	0.000002
-4	-4	0	4	5	-0.000002	0.000003
-4	-4	0	5	5	-0.002993	0.000000
-4	-4	0	6	5	0.000035	0.000000
-4	-4	0	7	5	0.000604	-0.000012
-4	-4	0	8	5	0.000596	0.000011
-4	-4	0	1	6	-0.000002	0.000001
-4	-4	0	2	6	0.000000	0.000000
-4	-4	0	3	6	-0.000024	0.000031
-4	-4	0	4	6	-0.000030	0.000023
-4	-4	0	5	6	-0.000035	0.000000
-4	-4	0	6	6	-0.000450	0.000000
-4	-4	0	7	6	-0.000020	0.000002
-4	-4	0	8	6	-0.000019	-0.000002
-4	-4	0	1	7	-0.000003	0.000002
-4	-4	0	2	7	0.000024	-0.000031
-4	-4	0	3	7	0.000000	0.000000
-4	-4	0	4	7	-0.000007	-0.000007
-4	-4	0	5	7	-0.000604	-0.000012
-4	-4	0	6	7	-0.000020	-0.000002
-4	-4	0	7	7	0.001392	0.000000
-4	-4	0	8	7	-0.000088	-0.000126
-4	-4	0	1	8	-0.000002	0.000003
-4	-4	0	2	8	0.000030	-0.000023
-4	-4	0	3	8	0.000007	0.000007
-4	-4	0	4	8	0.000000	0.000000
-4	-4	0	5	8	-0.000596	0.000011
-4	-4	0	6	8	-0.000019	0.000002
-4	-4	0	7	8	-0.000088	0.000126
-4	-4	0	8	8	0.001396	0.000000
-4	-4	1	1	1	-0.001580	0.000000
-4	-4	1	2	1	-0.000572	0.000000
-4	-4	1	3	1	0.000308	-0.000028
-4	-4	1	4	1	0.000303	0.000029
-4	-4	1	5	1	0.000000	0.000000
-4	-4	1	6	1	0.000002	0.000002
-4	-4	1	7	1	0.000029	-0.000002
-4	-4	1	8	1	-0.000002	0.000029
-4	-4	1	1	2	0.000572	0.000000
-4	-4	1	2	2	-0.000256	0.000000
-4	-4	1	3	2	-0.000125	-0.000003
-4	-4	1	4	2	-0.000124	0.000003
-4	-4	1	5	2	0.000002	0.000002
-4	-4	1	6	2	0.000000	0.000000
-4	-4	1	7	2	0.000021	-0.000003
-4	-4	1	8	2	-0.000003	0.000020
-4	-4	1	1	3	-0.000308	-0.000028
-4	-4	1	2	3	-0.000125	0.000003
-4	-4	1	3	3	0.000758	0.000000
-4	-4	1	4	3	0.000232	-0.000027
-4	-4	1	5	3	0.000029	-0.000002
-4	-4	1	6	3	-0.000021	0.000003
-4	-4	1	7	3	0.000000	0.000000
-4	-4	1	8	3	0.000006	-0.000006
-4	-4	1	1	4	-0.000303	0.000029
-4	-4	1	2	4	-0.000124	-0.000003
-4	-4	1	3	4	0.000232	0.000027
-4	-4	1	4	4	0.000753	0.000000
-4	-4	1	5	4	-0.000002	0.000029
-4	-4	1	6	4	0.000003	-0.000020
-4	-4	1	7	4	-0.000006	0.000006
-4	-4	1	8	4	0.000000	0.000000
-4	-4	1	1	5	0.000000	0.000000
-4	-4	1	2	5	-0.000002	0.000002
-4	-4	1	3	5	-0.000029	-0.000002
-4	-4	1	4	5	0.000002	0.000029
-4	-4	1	5	5	-0.001580	0.000000
-4	-4	1	6	5	-0.000572	0.000000
-4	-4	1	7	5	0.000308	0.000028
-4	-4	1	8	5	0.000303	-0.000029
-4	-4	1	1	6	-0.000002	0.000002
-4	-4	1	2	6	0.000000	0.000000
-4	-4	1	3	6	-0.000021	-0.000003
-4	-4	1	4	6	0.000003	0.000020
-4	-4	1	5	6	0.000572	0.000000
-4	-4	1	6	6	-0.000256	0.000000
-4	-4	1	7	6	-0.000125	0.000003
-4	-4	1	8	6	-0.000124	-0.000003
-4	-4	1	1	7	-0.000029	-0.000002
-4	-4	1	2	7	0.000021	0.000003
-4	-4	1	3	7	0.000000	0.000000
-4	-4	1	4	7	-0.000006	-0.000006
-4	-4	1	5	7	-0.000308	0.000028
-4	-4	1	6	7	-0.000125	-0.000003
-4	-4	1	7	7	0.000758	0.000000
-4	-4	1	8	7	0.000232	0.000027
-4	-4	1	1	8	0.000002	0.000029
-4	-4	1	2	8	-0.000003	-0.000020
-4	-4	1	3	8	0.000006	0.000006
-4	-4	1	4	8	0.000000	0.000000
-4	-4	1	5	8	-0.000303	-0.000029
-4	-4	1	6	8	-0.000124	0.000003
-4	-4	1	7	8	0.000232	-0.000027
-4	-4	1	8	8	0.000753	0.000000
-4	-4	2	1	1	-0.000682	0.000000
-4	-4	2	2	1	-0.000379	0.000000
-4	-4	2	3	1	0.000042	-0.000015
-4	-4	2	4	1	0.000041	0.000015
-4	-4	2	5	1	0.000000	0.000000
-4	-4	2	6	1	-0.000008	-0.000008
-4	-4	2	7	1	0.000021	-0.000013
-4	-4	2	8	1	-0.000014	0.000021
-4	-4	2	1	2	0.000379	0.000000
-4	-4	2	2	2	0.000084	0.000000
-4	-4	2	3	2	-0.000100	0.000004
-4	-4	2	4	2	-0.000099	-0.000003
-4	-4	2	5	2	-0.000008	-0.000008
-4	-4	2	6	2	0.000000	0.000000
-4	-4	2	7	2	-0.000011	-0.000009
-4	-4	2	8	2	-0.000009	-0.000011
-4	-4	2	1	3	-0.000042	-0.000015
-4	-4	2	2	3	-0.000100	-0.000004
-4	-4	2	3	3	0.000332	0.000000
-4	-4	2	4	3	-0.000008	0.000013
-4	-4	2	5	3	0.000021	-0.000013
-4	-4	2	6	3	0.000011	0.000009
-4	-4	2	7	3	0.000000	0.000000
-4	-4	2	8	3	0.000017	-0.000018
-4	-4	2	1	4	-0.000041	0.000015
-4	-4	2	2	4	-0.000099	0.000003
-4	-4	2	3	4	-0.000008	-0.000013
-4	-4	2	4	4	0.000332	0.000000
-4	-4	2	5	4	-0.000014	0.000021
-4	-4	2	6	4	0.000009	0.000011
-4	-4	2	7	4	-0.000017	0.000018
-4	-4	2	8	4	0.000000	0.000000
-4	-4	2	1	5	0.000000	0.000000
-4	-4	2	2	5	0.000008	-0.000008
-4	-4	2	3	5	-0.000021	-0.000013
-4	-4	2	4	5	0.000014	0.000021
-4	-4	2	5	5	-0.000682	0.000000
-4	-4	2	6	5	-0.000379	0.000000
-4	-4	2	7	5	0.000042	0.000015
-4	-4	2	8	5	0.000041	-0.000015
-4	-4	2	1	6	0.000008	-0.000008
-4	-4	2	2	6	0.000000	0.000000
-4	-4	2	3	6	0.000011	-0.000009
-4	-4	2	4	6	0.000009	-0.000011
-4	-4	2	5	6	0.000379	0.000000
-4	-4	2	6	6	0.000084	0.000000
-4	-4	2	7	6	-0.000100	-0.000004
-4	-4	2	8	6	-0.000099	0.000003
-4	-4	2	1	7	-0.000021	-0.000013
-4	-4	2	2	7	-0.000011	0.000009
-4	-4	2	3	7	0.000000	0.000000
-4	-4	2	4	7	-0.000017	-0.000018
-4	-4	2	5	7	-0.000042	0.000015
-4	-4	2	6	7	-0.000100	0.000004
-4	-4	2	7	7	0.000332	0.000000
-4	-4	2	8	7	-0.000008	-0.000013
-4	-4	2	1	8	0.000014	0.000021
-4	-4	2	2	8	-0.000009	0.000011
-4	-4	2	3	8	0.000017	0.000018
-4	-4	2	4	8	0.000000	0.000000
-4	-4	2	5	8	-0.000041	-0.000015
-4	-4	2	6	8	-0.000099	-0.000003
-4	-4	2	7	8	-0.000008	0.000013
-4	-4	2	8	8	0.000332	0.000000
-4	-4	3	1	1	-0.000548	0.000000
-4	-4	3	2	1	-0.000180	0.000000
-4	-4	3	3	1	0.000013	0.000004
-4	-4	3	4	1	0.000013	-0.000004
-4	-4	3	5	1	0.000000	0.000000
-4	-4	3	6	1	-0.000004	-0.000004
-4	-4	3	7	1	0.000006	0.000007
-4	-4	3	8	1	0.000007	0.000006
-4	-4	3	1	2	0.000180	0.000000
-4	-4	3	2	2	0.000201	0.000000
-4	-4	3	3	2	-0.000024	0.000011
-4	-4	3	4	2	-0.000024	-0.000011
-4	-4	3	5	2	-0.000004	-0.000004
-4	-4	3	6	2	0.000000	0.000000
-4	-4	3	7	2	0.000005	0.000002
-4	-4	3	8	2	0.000002	0.000005
-4	-4	3	1	3	-0.000013	0.000004
-4	-4	3	2	3	-0.000024	-0.000011
-4	-4	3	3	3	0.000167	0.000000
-4	-4	3	4	3	-0.000086	0.000042
-4	-4	3	5	3	0.000006	0.000007
-4	-4	3	6	3	-0.000005	-0.000002
-4	-4	3	7	3	0.000000	0.000000
-4	-4	3	8	3	-0.000004	0.000004
-4	-4	3	1	4	-0.000013	-0.000004
-4	-4	3	2	4	-0.000024	0.000011
-4	-4	3	3	4	-0.000086	-0.000042
-4	-4	3	4	4	0.000169	0.000000
-4	-4	3	5	4	0.000007	0.000006
-4	-4	3	6	4	-0.000002	-0.000005
-4	-4	3	7	4	0.000004	-0.000004
-4	-4	3	8	4	0.000000	0.000000
-4	-4	3	1	5	0.000000	0.000000
-4	-4	3	2	5	0.000004	-0.000004
-4	-4	3	3	5	-0.000006	0.000007
-4	-4	3	4	5	-0.000007	0.000006
-4	-4	3	5	5	-0.000548	0.000000
-4	-4	3	6	5	-0.000180	0.000000
-4	-4	3	7	5	0.000013	-0.000004
-4	-4	3	8	5	0.000013	0.000004
-4	-4	3	1	6	0.000004	-0.000004
-4	-4	3	2	6	0.000000	0.000000
-4	-4	3	3	6	-0.000005	0.000002
-4	-4	3	4	6	-0.000002	0.000005
-4	-4	3	5	6	0.000180	0.000000
-4	-4	3	6	6	0.000201	0.000000
-4	-4	3	7	6	-0.000024	-0.000011
-4	-4	3	8	6	-0.000024	0.000011
-4	-4	3	1	7	-0.000006	0.000007
-4	-4	3	2	7	0.000005	-0.000002
-4	-4	3	3	7	0.000000	0.000000
-4	-4	3	4	7	0.000004	0.000004
-4	-4	3	5	7	-0.000013	-0.000004
-4	-4	3	6	7	-0.000024	0.000011
-4	-4	3	7	7	0.000167	0.000000
-4	-4	3	8	7	-0.000086	-0.000042
-4	-4	3	1	8	-0.000007	0.000006
-4	-4	3	2	8	0.000002	-0.000005
-4	-4	3	3	8	-0.000004	-0.000004
-4	-4	3	4	8	0.000000	0.000000
-4	-4	3	5	8	-0.000013	0.000004
-4	-4	3	6	8	-0.000024	-0.000011
-4	-4	3	7	8	-0.000086	0.000042
-4	-4	3	8	8	0.000169	0.000000
-4	-4	4	1	1	-0.000540	0.000000
-4	-4	4	2	1	-0.000092	0.000000
-4	-4	4	3	1	0.000110	-0.000018
-4	-4	4	4	1	0.000110	0.000018
-4	-4	4	5	1	0.000000	0.000000
-4	-4	4	6	1	0.000009	0.000009
-4	-4	4	7	1	0.000017	0.000002
-4	-4	4	8	1	0.000002	0.000017
-4	-4	4	1	2	0.000092	0.000000
-4	-4	4	2	2	0.000168	0.000000
-4	-4	4	3	2	-0.000088	0.000015
-4	-4	4	4	2	-0.000087	-0.000015
-4	-4	4	5	2	0.000009	0.000009
-4	-4	4	6	2	0.000000	0.000000
-4	-4	4	7	2	0.000028	-0.000014
-4	-4	4	8	2	-0.000014	0.000028
-4	-4	4	1	3	-0.000110	-0.000018
-4	-4	4	2	3	-0.000088	-0.000015
-4	-4	4	3	3	0.000159	0.000000
-4	-4	4	4	3	0.000087	-0.000026
-4	-4	4	5	3	0.000017	0.000002
-4	-4	4	6	3	-0.000028	0.000014
-4	-4	4	7	3	0.000000	0.000000
-4	-4	4	8	3	-0.000013	0.000014
-4	-4	4	1	4	-0.000110	0.000018
-4	-4	4	2	4	-0.000087	0.000015
-4	-4	4	3	4	0.000087	0.000026
-4	-4	4	4	4	0.000157	0.000000
-4	-4	4	5	4	0.000002	0.000017
-4	-4	4	6	4	0.000014	-0.000028
-4	-4	4	7	4	0.000013	-0.000014
-4	-4	4	8	4	0.000000	0.000000
-4	-4	4	1	5	0.000000	0.000000
-4	-4	4	2	5	-0.000009	0.000009
-4	-4	4	3	5	-0.000017	0.000002
-4	-4	4	4	5	-0.000002	0.000017
-4	-4	4	5	5	-0.000540	0.000000
-4	-4	4	6	5	-0.000092	0.000000
-4	-4	4	7	5	0.000110	0.000018
-4	-4	4	8	5	0.000110	-0.000018
-4	-4	4	1	6	-0.000009	0.000009
-4	-4	4	2	6	0.000000	0.000000
-4	-4	4	3	6	-0.000028	-0.000014
-4	-4	4	4	6	0.000014	0.000028
-4	-4	4	5	6	0.000092	0.000000
-4	-4	4	6	6	0.000168	0.000000
-4	-4	4	7	6	-0.000088	-0.000015
-4	-4	4	8	6	-0.000087	0.000015
-4	-4	4	1	7	-0.000017	0.000002
-4	-4	4	2	7	0.000028	0.000014
-4	-4	4	3	7	0.000000	0.000000
-4	-4	4	4	7	0.000013	0.000014
-4	-4	4	5	7	-0.000110	0.000018
-4	-4	4	6	7	-0.000088	0.000015
-4	-4	4	7	7	0.000159	0.000000
-4	-4	4	8	7	0.000087	0.000026
-4	-4	4	1	8	-0.000002	0.000017
-4	-4	4	2	8	-0.000014	-0.000028
-4	-4	4	3	8	-0.000013	-0.000014
-4	-4	4	4	8	0.000000	0.000000
-4	-4	4	5	8	-0.000110	-0.000018
-4	-4	4	6	8	-0.000087	-0.000015
-4	-4	4	7	8	0.000087	-0.000026
-4	-4	4	8	8	0.000157	0.000000
-4	-3	-4	1	1	-0.000569	0.000000
-4	-3	-4	2	1	0.000022	-0.000006
-4	-3	-4	3	1	0.000025	-0.000008
-4	-3	-4	4	1	0.000235	-0.000004
-4	-3	-4	5	1	0.000000	0.000000
-4	-3	-4	6	1	-0.000001	0.000007
-4	-3	-4	7	1	0.000001	0.000006
-4	-3	-4	8	1	0.000000	0.000004
-4	-3	-4	1	2	-0.000022	-0.000006
-4	-3	-4	2	2	0.000202	0.000000
-4	-3	-4	3	2	-0.000093	0.000002
-4	-3	-4	4	2	-0.000015	-0.000002
-4	-3	-4	5	2	-0.000001	0.000007
-4	-3	-4	6	2	0.000000	0.000000
-4	-3	-4	7	2	-0.000055	0.000003
-4	-3	-4	8	2	-0.000009	0.000008
-4	-3	-4	1	3	-0.000025	-0.000008
-4	-3	-4	2	3	-0.000093	-0.000002
-4	-3	-4	3	3	0.000199	0.000000
-4	-3	-4	4	3	-0.000012	-0.000008
-4	-3	-4	5	3	0.000001	0.000006
-4	-3	-4	6	3	0.000055	-0.000003
-4	-3	-4	7	3	0.000000	0.000000
-4	-3	-4	8	3	0.000009	0.000002
-4	-3	-4	1	4	-0.000235	-0.000004
-4	-3	-4	2	4	-0.000015	0.000002
-4	-3	-4	3	4	-0.000012	0.000008
-4	-3	-4	4	4	0.000196	0.000000
-4	-3	-4	5	4	0.000000	0.000004
-4	-3	-4	6	4	0.000009	-0.000008
-4	-3	-4	7	4	-0.000009	-0.000002
-4	-3	-4	8	4	0.000000	0.000000
-4	-3	-4	1	5	0.000000	0.000000
-4	-3	-4	2	5	0.000001	0.000007
-4	-3	-4	3	5	-0.000001	0.000006
-4	-3	-4	4	5	0.000000	0.000004
-4	-3	-4	5	5	-0.000569	0.000000
-4	-3	-4	6	5	0.000022	0.000006
-4	-3	-4	7	5	0.000025	0.000008
-4	-3	-4	8	5	0.000235	0.000004
-4	-3	-4	1	6	0.000001	0.000007
-4	-3	-4	2	6	0.000000	0.000000
-4	-3	-4	3	6	0.000055	0.000003
-4	-3	-4	4	6	0.000009	0.000008
-4	-3	-4	5	6	-0.000022	0.000006
-4	-3	-4	6	6	0.000202	0.000000
-4	-3	-4	7	6	-0.000093	-0.000002
-4	-3	-4	8	6	-0.000015	0.000002
-4	-3	-4	1	7	-0.000001	0.000006
-4	-3	-4	2	7	-0.000055	-0.000003
-4	-3	-4	3	7	0.000000	0.000000
-4	-3	-4	4	7	-0.000009	0.000002
-4	-3	-4	5	7	-0.000025	0.000008
-4	-3	-4	6	7	-0.000093	0.000002
-4	-3	-4	7	7	0.000199	0.000000
-4	-3	-4	8	7	-0.000012	0.000008
-4	-3	-4	1	8	0.000000	0.000004
-4	-3	-4	2	8	-0.000009	-0.000008
-4	-3	-4	3	8	0.000009	-0.000002
-4	-3	-4	4	8	0.000000	0.000000
-4	-3	-4	5	8	-0.000235	0.000004
-4	-3	-4	6	8	-0.000015	-0.000002
-4	-3	-4	7	8	-0.000012	-0.000008
-4	-3	-4	8	8	0.000196	0.000000
-4	-3	-3	1	1	-0.000735	0.000000
-4	-3	-3	2	1	0.000262	0.000003
-4	-3	-3	3	1	0.000126	0.000008
-4	-3	-3	4	1	0.000264	0.000018
-4	-3	-3	5	1	0.000000	0.000000
-4	-3	-3	6	1	0.000018	-0.000004
-4	-3	-3	7	1	0.000008	0.000000
-4	-3	-3	8	1	0.000003	0.000004
-4	-3	-3	1	2	-0.000262	0.000003
-4	-3	-3	2	2	0.000274	0.000000
-4	-3	-3	3	2	0.000116	0.000006
-4	-3	-3	4	2	0.000065	0.000022
-4	-3	-3	5	2	0.000018	-0.000004
-4	-3	-3	6	2	0.000000	0.000000
-4	-3	-3	7	2	-0.000023	0.000005
-4	-3	-3	8	2	-0.000022	0.000005
-4	-3	-3	1	3	-0.000126	0.000008
-4	-3	-3	2	3	0.000116	-0.000006
-4	-3	-3	3	3	0.000221	0.000000
-4	-3	-3	4	3	0.000117	0.000023
-4	-3	-3	5	3	0.000008	0.000000
-4	-3	-3	6	3	0.000023	-0.000005
-4	-3	-3	7	3	0.000000	0.000000
-4	-3	-3	8	3	-0.000007	0.000005
-4	-3	-3	1	4	-0.000264	0.000018
-4	-3	-3	2	4	0.000065	-0.000022
-4	-3	-3	3	4	0.000117	-0.000023
-4	-3	-3	4	4	0.000271	0.000000
-4	-3	-3	5	4	0.000003	0.000004
-4	-3	-3	6	4	0.000022	-0.000005
-4	-3	-3	7	4	0.000007	-0.000005
-4	-3	-3	8	4	0.000000	0.000000
-4	-3	-3	1	5	0.000000	0.000000
-4	-3	-3	2	5	-0.000018	-0.000004
-4	-3	-3	3	5	-0.000008	0.000000
-4	-3	-3	4	5	-0.000003	0.000004
-4	-3	-3	5	5	-0.000735	0.000000
-4	-3	-3	6	5	0.000262	-0.000003
-4	-3	-3	7	5	0.000126	-0.000008
-4	-3	-3	8	5	0.000264	-0.000018
-4	-3	-3	1	6	-0.000018	-0.000004
-4	-3	-3	2	6	0.000000	0.000000
-4	-3	-3	3	6	0.000023	0.000005
-4	-3	-3	4	6	0.000022	0.000005
-4	-3	-3	5	6	-0.000262	-0.000003
-4	-3	-3	6	6	0.000274	0.000000
-4	-3	-3	7	6	0.000116	-0.000006
-4	-3	-3	8	6	0.000065	-0.000022
-4	-3	-3	1	7	-0.000008	0.000000
-4	-3	-3	2	7	-0.000023	-0.000005
-4	-3	-3	3	7	0.000000	0.000000
-4	-3	-3	4	7	0.000007	0.000005
-4	-3	-3	5	7	-0.000126	-0.000008
-4	-3	-3	6	7	0.000116	0.000006
-4	-3	-3	7	7	0.000221	0.000000
-4	-3	-3	8	7	0.000117	-0.000023
-4	-3	-3	1	8	-0.000003	0.000004
-4	-3	-3	2	8	-0.000022	-0.000005
-4	-3	-3	3	8	-0.000007	-0.000005
-4	-3	-3	4	8	0.000000	0.000000
-4	-3	-3	5	8	-0.000264	-0.000018
-4	-3	-3	6	8	0.000065	0.000022
-4	-3	-3	7	8	0.000117	0.000023
-4	-3	-3	8	8	0.000271	0.000000
-4	-3	-2	1	1	-0.000818	0.000000
-4	-3	-2	2	1	0.000615	0.000011
-4	-3	-2	3	1	0.000101	0.000004
-4	-3	-2	4	1	0.000237	-0.000004
-4	-3	-2	5	1	0.000000	0.000000
-4	-3	-2	6	1	0.000005	-0.000009
-4	-3	-2	7	1	-0.000008	-0.000006
-4	-3	-2	8	1	0.000013	-0.000024
-4	-3	-2	1	2	-0.000615	0.000011
-4	-3	-2	2	2	0.000244	0.000000
-4	-3	-2	3	2	0.000111	0.000014
-4	-3	-2	4	2	0.000267	-0.000003
-4	-3	-2	5	2	0.000005	-0.000009
-4	-3	-2	6	2	0.000000	0.000000
-4	-3	-2	7	2	-0.000009	0.000007
-4	-3	-2	8	2	-0.000009	-0.000009
-4	-3	-2	1	3	-0.000101	0.000004
-4	-3	-2	2	3	0.000111	-0.000014
-4	-3	-2	3	3	0.000336	0.000000
-4	-3	-2	4	3	-0.000083	-0.000007
-4	-3	-2	5	3	-0.000008	-0.000006
-4	-3	-2	6	3	0.000009	-0.000007
-4	-3	-2	7	3	0.000000	0.000000
-4	-3	-2	8	3	-0.000029	-0.000005
-4	-3	-2	1	4	-0.000237	-0.000004
-4	-3	-2	2	4	0.000267	0.000003
-4	-3	-2	3	4	-0.000083	0.000007
-4	-3	-2	4	4	0.000212	0.000000
-4	-3	-2	5	4	0.000013	-0.000024
-4	-3	-2	6	4	0.000009	0.000009
-4	-3	-2	7	4	0.000029	0.000005
-4	-3	-2	8	4	0.000000	0.000000
-4	-3	-2	1	5	0.000000	0.000000
-4	-3	-2	2	5	-0.000005	-0.000009
-4	-3	-2	3	5	0.000008	-0.000006
-4	-3	-2	4	5	-0.000013	-0.000024
-4	-3	-2	5	5	-0.000818	0.000000
-4	-3	-2	6	5	0.000615	-0.000011
-4	-3	-2	7	5	0.000101	-0.000004
-4	-3	-2	8	5	0.000237	0.000004
-4	-3	-2	1	6	-0.000005	-0.000009
-4	-3	-2	2	6	0.000000	0.000000
-4	-3	-2	3	6	0.000009	0.000007
-4	-3	-2	4	6	0.000009	-0.000009
-4	-3	-2	5	6	-0.000615	-0.000011
-4	-3	-2	6	6	0.000244	0.000000
-4	-3	-2	7	6	0.000111	-0.000014
-4	-3	-2	8	6	0.000267	0.000003
-4	-3	-2	1	7	0.000008	-0.000006
-4	-3	-2	2	7	-0.000009	-0.000007
-4	-3	-2	3	7	0.000000	0.000000
-4	-3	-2	4	7	0.000029	-0.000005
-4	-3	-2	5	7	-0.000101	-0.000004
-4	-3	-2	6	7	0.000111	0.000014
-4	-3	-2	7	7	0.000336	0.000000
-4	-3	-2	8	7	-0.000083	0.000007
-4	-3	-2	1	8	-0.000013	-0.000024
-4	-3	-2	2	8	-0.000009	0.000009
-4	-3	-2	3	8	-0.000029	0.000005
-4	-3	-2	4	8	0.000000	0.000000
-4	-3	-2	5	8	-0.000237	0.000004
-4	-3	-2	6	8	0.000267	-0.000003
-4	-3	-2	7	8	-0.000083	-0.000007
-4	-3	-2	8	8	0.000212	0.000000
-4	-3	-1	1	1	-0.001833	0.000000
-4	-3	-1	2	1	0.000959	0.000003
-4	-3	-1	3	1	0.000488	0.000005
-4	-3	-1	4	1	0.000915	0.000020
-4	-3	-1	5	1	0.000000	0.000000
-4	-3	-1	6	1	0.000005	0.000029
-4	-3	-1	7	1	-0.000031	0.000009
-4	-3	-1	8	1	0.000014	-0.000038
-4	-3	-1	1	2	-0.000959	0.000003
-4	-3	-1	2	2	-0.000278	0.000000
-4	-3	-1	3	2	0.000218	0.000010
-4	-3	-1	4	2	0.000551	-0.000022
-4	-3	-1	5	2	0.000005	0.000029
-4	-3	-1	6	2	0.000000	0.000000
-4	-3	-1	7	2	-0.000015	-0.000015
-4	-3	-1	8	2	-0.000017	0.000004
-4	-3	-1	1	3	-0.000488	0.000005
-4	-3	-1	2	3	0.000218	-0.000010
-4	-3	-1	3	3	0.000967	0.000000
-4	-3	-1	4	3	0.000347	-0.000029
-4	-3	-1	5	3	-0.000031	0.000009
-4	-3	-1	6	3	0.000015	0.000015
-4	-3	-1	7	3	0.000000	0.000000
-4	-3	-1	8	3	-0.000012	0.000016
-4	-3	-1	1	4	-0.000915	0.000020
-4	-3	-1	2	4	0.000551	0.000022
-4	-3	-1	3	4	0.000347	0.000029
-4	-3	-1	4	4	0.000930	0.000000
-4	-3	-1	5	4	0.000014	-0.000038
-4	-3	-1	6	4	0.000017	-0.000004
-4	-3	-1	7	4	0.000012	-0.000016
-4	-3	-1	8	4	0.000000	0.000000
-4	-3	-1	1	5	0.000000	0.000000
-4	-3	-1	2	5	-0.000005	0.000029
-4	-3	-1	3	5	0.000031	0.000009
-4	-3	-1	4	5	-0.000014	-0.000038
-4	-3	-1	5	5	-0.001833	0.000000
-4	-3	-1	6	5	0.000959	-0.000003
-4	-3	-1	7	5	0.000488	-0.000005
-4	-3	-1	8	5	0.000915	-0.000020
-4	-3	-1	1	6	-0.000005	0.000029
-4	-3	-1	2	6	0.000000	0.000000
-4	-3	-1	3	6	0.000015	-0.000015
-4	-3	-1	4	6	0.000017	0.000004
-4	-3	-1	5	6	-0.000959	-0.000003
-4	-3	-1	6	6	-0.000278	0.000000
-4	-3	-1	7	6	0.000218	-0.000010
-4	-3	-1	8	6	0.000551	0.000022
-4	-3	-1	1	7	0.000031	0.000009
-4	-3	-1	2	7	-0.000015	0.000015
-4	-3	-1	3	7	0.000000	0.000000
-4	-3	-1	4	7	0.000012	0.000016
-4	-3	-1	5	7	-0.000488	-0.000005
-4	-3	-1	6	7	0.000218	0.000010
-4	-3	-1	7	7	0.000967	0.000000
-4	-3	-1	8	7	0.000347	0.000029
-4	-3	-1	1	8	-0.000014	-0.000038
-4	-3	-1	2	8	-0.000017	-0.000004
-4	-3	-1	3	8	-0.000012	-0.000016
-4	-3	-1	4	8	0.000000	0.000000
-4	-3	-1	5	8	-0.000915	-0.000020
-4	-3	-1	6	8	0.000551	-0.000022
-4	-3	-1	7	8	0.000347	-0.000029
-4	-3	-1	8	8	0.000930	0.000000
-4	-3	0	1	1	-0.003736	0.000000
-4	-3	0	2	1	0.000017	0.000002
-4	-3	0	3	1	0.001005	-0.000036
-4	-3	0	4	1	0.002222	0.000050
-4	-3	0	5	1	0.000000	0.000000
-4	-3	0	6	1	0.000000	0.000066
-4	-3	0	7	1	0.000003	-0.000001
-4	-3	0	8	1	0.000001	0.000002
-4	-3	0	1	2	-0.000017	0.000002
-4	-3	0	2	2	-0.000666	0.000000
-4	-3	0	3	2	0.000015	0.000008
-4	-3	0	4	2	0.000005	0.000003
-4	-3	0	5	2	0.000000	0.000066
-4	-3	0	6	2	0.000000	0.000000
-4	-3	0	7	2	-0.000062	-0.000053
-4	-3	0	8	2	-0.000007	-0.000009
-4	-3	0	1	3	-0.001005	-0.000036
-4	-3	0	2	3	0.000015	-0.000008
-4	-3	0	3	3	0.003474	0.000000
-4	-3	0	4	3	0.000860	0.000157
-4	-3	0	5	3	0.000003	-0.000001
-4	-3	0	6	3	0.000062	0.000053
-4	-3	0	7	3	0.000000	0.000000
-4	-3	0	8	3	-0.000004	-0.000009
-4	-3	0	1	4	-0.002222	0.000050
-4	-3	0	2	4	0.000005	-0.000003
-4	-3	0	3	4	0.000860	-0.000157
-4	-3	0	4	4	0.002086	0.000000
-4	-3	0	5	4	0.000001	0.000002
-4	-3	0	6	4	0.000007	0.000009
-4	-3	0	7	4	0.000004	0.000009
-4	-3	0	8	4	0.000000	0.000000
-4	-3	0	1	5	0.000000	0.000000
-4	-3	0	2	5	0.000000	0.000066
-4	-3	0	3	5	-0.000003	-0.000001
-4	-3	0	4	5	-0.000001	0.000002
-4	-3	0	5	5	-0.003736	0.000000
-4	-3	0	6	5	0.000017	-0.000002
-4	-3	0	7	5	0.001005	0.000036
-4	-3	0	8	5	0.002222	-0.000050
-4	-3	0	1	6	0.000000	0.000066
-4	-3	0	2	6	0.000000	0.000000
-4	-3	0	3	6	0.000062	-0.000053
-4	-3	0	4	6	0.000007	-0.000009
-4	-3	0	5	6	-0.000017	-0.000002
-4	-3	0	6	6	-0.000666	0.000000
-4	-3	0	7	6	0.000015	-0.000008
-4	-3	0	8	6	0.000005	-0.000003
-4	-3	0	1	7	-0.000003	-0.000001
-4	-3	0	2	7	-0.000062	0.000053
-4	-3	0	3	7	0.000000	0.000000
-4	-3	0	4	7	0.000004	-0.000009
-4	-3	0	5	7	-0.001005	0.000036
-4	-3	0	6	7	0.000015	0.000008
-4	-3	0	7	7	0.003474	0.000000
-4	-3	0	8	7	0.000860	-0.000157
-4	-3	0	1	8	-0.000001	0.000002
-4	-3	0	2	8	-0.000007	0.000009
-4	-3	0	3	8	-0.000004	0.000009
-4	-3	0	4	8	0.000000	0.000000
-4	-3	0	5	8	-0.002222	-0.000050
-4	-3	0	6	8	0.000005	0.000003
-4	-3	0	7	8	0.000860	0.000157
-4	-3	0	8	8	0.002086	0.000000
-4	-3	1	1	1	-0.001782	0.000000
-4	-3	1	2	1	-0.000956	-0.000004
-4	-3	1	3	1	0.000446	-0.000002
-4	-3	1	4	1	0.000898	0.000018
-4	-3	1	5	1	0.000000	0.000000
-4	-3	1	6	1	-0.000006	0.000027
-4	-3	1	7	1	0.000030	-0.000009
-4	-3	1	8	1	-0.000012	0.000033
-4	-3	1	1	2	0.000956	-0.000004
-4	-3	1	2	2	-0.000344	0.000000
-4	-3	1	3	2	-0.000278	-0.000009
-4	-3	1	4	2	-0.000615	0.000027
-4	-3	1	5	2	-0.000006	0.000027
-4	-3	1	6	2	0.000000	0.000000
-4	-3	1	7	2	-0.000024	-0.000024
-4	-3	1	8	2	-0.000024	0.000006
-4	-3	1	1	3	-0.000446	-0.000002
-4	-3	1	2	3	-0.000278	0.000009
-4	-3	1	3	3	0.000997	0.000000
-4	-3	1	4	3	0.000397	-0.000029
-4	-3	1	5	3	0.000030	-0.000009
-4	-3	1	6	3	0.000024	0.000024
-4	-3	1	7	3	0.000000	0.000000
-4	-3	1	8	3	0.000016	0.000000
-4	-3	1	1	4	-0.000898	0.000018
-4	-3	1	2	4	-0.000615	-0.000027
-4	-3	1	3	4	0.000397	0.000029
-4	-3	1	4	4	0.000877	0.000000
-4	-3	1	5	4	-0.000012	0.000033
-4	-3	1	6	4	0.000024	-0.000006
-4	-3	1	7	4	-0.000016	0.000000
-4	-3	1	8	4	0.000000	0.000000
-4	-3	1	1	5	0.000000	0.000000
-4	-3	1	2	5	0.000006	0.000027
-4	-3	1	3	5	-0.000030	-0.000009
-4	-3	1	4	5	0.000012	0.000033
-4	-3	1	5	5	-0.001782	0.000000
-4	-3	1	6	5	-0.000956	0.000004
-4	-3	1	7	5	0.000446	0.000002
-4	-3	1	8	5	0.000898	-0.000018
-4	-3	1	1	6	0.000006	0.000027
-4	-3	1	2	6	0.000000	0.000000
-4	-3	1	3	6	0.000024	-0.000024
-4	-3	1	4	6	0.000024	0.000006
-4	-3	1	5	6	0.000956	0.000004
-4	-3	1	6	6	-0.000344	0.000000
-4	-3	1	7	6	-0.000278	0.000009
-4	-3	1	8	6	-0.000615	-0.000027
-4	-3	1	1	7	-0.000030	-0.000009
-4	-3	1	2	7	-0.000024	0.000024
-4	-3	1	3	7	0.000000	0.000000
-4	-3	1	4	7	-0.000016	0.000000
-4	-3	1	5	7	-0.000446	0.000002
-4	-3	1	6	7	-0.000278	-0.000009
-4	-3	1	7	7	0.000997	0.000000
-4	-3	1	8	7	0.000397	0.000029
-4	-3	1	1	8	0.000012	0.000033
-4	-3	1	2	8	-0.000024	-0.000006
-4	-3	1	3	8	0.000016	0.000000
-4	-3	1	4	8	0.000000	0.000000
-4	-3	1	5	8	-0.000898	-0.000018
-4	-3	1	6	8	-0.000615	0.000027
-4	-3	1	7	8	0.000397	-0.000029
-4	-3	1	8	8	0.000877	0.000000
-4	-3	2	1	1	-0.000802	0.000000
-4	-3	2	2	1	-0.000579	-0.000008
-4	-3	2	3	1	0.000126	0.000004
-4	-3	2	4	1	0.000258	-0.000010
-4	-3	2	5	1	0.000000	0.000000
-4	-3	2	6	1	0.000001	-0.000003
-4	-3	2	7	1	0.000009	0.000003
-4	-3	2	8	1	-0.000011	0.000020
-4	-3	2	1	2	0.000579	-0.000008
-4	-3	2	2	2	0.000155	0.000000
-4	-3	2	3	2	-0.000110	-0.000016
-4	-3	2	4	2	-0.000335	0.000000
-4	-3	2	5	2	0.000001	-0.000003
-4	-3	2	6	2	0.000000	0.000000
-4	-3	2	7	2	-0.000010	0.000006
-4	-3	2	8	2	-0.000005	0.000000
-4	-3	2	1	3	-0.000126	0.000004
-4	-3	2	2	3	-0.000110	0.000016
-4	-3	2	3	3	0.000275	0.000000
-4	-3	2	4	3	-0.000103	-0.000003
-4	-3	2	5	3	0.000009	0.000003
-4	-3	2	6	3	0.000010	-0.000006
-4	-3	2	7	3	0.000000	0.000000
-4	-3	2	8	3	0.000014	-0.000004
-4	-3	2	1	4	-0.000258	-0.000010
-4	-3	2	2	4	-0.000335	0.000000
-4	-3	2	3	4	-0.000103	0.000003
-4	-3	2	4	4	0.000261	0.000000
-4	-3	2	5	4	-0.000011	0.000020
-4	-3	2	6	4	0.000005	0.000000
-4	-3	2	7	4	-0.000014	0.000004
-4	-3	2	8	4	0.000000	0.000000
-4	-3	2	1	5	0.000000	0.000000
-4	-3	2	2	5	-0.000001	-0.000003
-4	-3	2	3	5	-0.000009	0.000003
-4	-3	2	4	5	0.000011	0.000020
-4	-3	2	5	5	-0.000802	0.000000
-4	-3	2	6	5	-0.000579	0.000008
-4	-3	2	7	5	0.000126	-0.000004
-4	-3	2	8	5	0.000258	0.000010
-4	-3	2	1	6	-0.000001	-0.000003
-4	-3	2	2	6	0.000000	0.000000
-4	-3	2	3	6	0.000010	0.000006
-4	-3	2	4	6	0.000005	0.000000
-4	-3	2	5	6	0.000579	0.000008
-4	-3	2	6	6	0.000155	0.000000
-4	-3	2	7	6	-0.000110	0.000016
-4	-3	2	8	6	-0.000335	0.000000
-4	-3	2	1	7	-0.000009	0.000003
-4	-3	2	2	7	-0.000010	-0.000006
-4	-3	2	3	7	0.000000	0.000000
-4	-3	2	4	7	-0.000014	-0.000004
-4	-3	2	5	7	-0.000126	-0.000004
-4	-3	2	6	7	-0.000110	-0.000016
-4	-3	2	7	7	0.000275	0.000000
-4	-3	2	8	7	-0.000103	0.000003
-4	-3	2	1	8	0.000011	0.000020
-4	-3	2	2	8	-0.000005	0.000000
-4	-3	2	3	8	0.000014	0.000004
-4	-3	2	4	8	0.000000	0.000000
-4	-3	2	5	8	-0.000258	0.000010
-4	-3	2	6	8	-0.000335	0.000000
-4	-3	2	7	8	-0.000103	-0.000003
-4	-3	2	8	8	0.000261	0.000000
-4	-3	3	1	1	-0.000732	0.000000
-4	-3	3	2	1	-0.000279	-0.000002
-4	-3	3	3	1	0.000119	0.000014
-4	-3	3	4	1	0.000280	0.000017
-4	-3	3	5	1	0.000000	0.000000
-4	-3	3	6	1	0.000012	0.000002
-4	-3	3	7	1	-0.000016	-0.000002
-4	-3	3	8	1	-0.000002	-0.000001
-4	-3	3	1	2	0.000279	-0.000002
-4	-3	3	2	2	0.000230	0.000000
-4	-3	3	3	2	-0.000118	-0.000017
-4	-3	3	4	2	-0.000108	-0.000021
-4	-3	3	5	2	0.000012	0.000002
-4	-3	3	6	2	0.000000	0.000000
-4	-3	3	7	2	-0.000019	0.000006
-4	-3	3	8	2	-0.000021	-0.000001
-4	-3	3	1	3	-0.000119	0.000014
-4	-3	3	2	3	-0.000118	0.000017
-4	-3	3	3	3	0.000248	0.000000
-4	-3	3	4	3	0.000104	0.000017
-4	-3	3	5	3	-0.000016	-0.000002
-4	-3	3	6	3	0.000019	-0.000006
-4	-3	3	7	3	0.000000	0.000000
-4	-3	3	8	3	0.000015	-0.000002
-4	-3	3	1	4	-0.000280	0.000017
-4	-3	3	2	4	-0.000108	0.000021
-4	-3	3	3	4	0.000104	-0.000017
-4	-3	3	4	4	0.000271	0.000000
-4	-3	3	5	4	-0.000002	-0.000001
-4	-3	3	6	4	0.000021	0.000001
-4	-3	3	7	4	-0.000015	0.000002
-4	-3	3	8	4	0.000000	0.000000
-4	-3	3	1	5	0.000000	0.000000
-4	-3	3	2	5	-0.000012	0.000002
-4	-3	3	3	5	0.000016	-0.000002
-4	-3	3	4	5	0.000002	-0.000001
-4	-3	3	5	5	-0.000732	0.000000
-4	-3	3	6	5	-0.000279	0.000002
-4	-3	3	7	5	0.000119	-0.000014
-4	-3	3	8	5	0.000280	-0.000017
-4	-3	3	1	6	-0.000012	0.000002
-4	-3	3	2	6	0.000000	0.000000
-4	-3	3	3	6	0.000019	0.000006
-4	-3	3	4	6	0.000021	-0.000001
-4	-3	3	5	6	0.000279	0.000002
-4	-3	3	6	6	0.000230	0.000000
-4	-3	3	7	6	-0.000118	0.000017
-4	-3	3	8	6	-0.000108	0.000021
-4	-3	3	1	7	0.000016	-0.000002
-4	-3	3	2	7	-0.000019	-0.000006
-4	-3	3	3	7	0.000000	0.000000
-4	-3	3	4	7	-0.000015	-0.000002
-4	-3	3	5	7	-0.000119	-0.000014
-4	-3	3	6	7	-0.000118	-0.000017
-4	-3	3	7	7	0.000248	0.000000
-4	-3	3	8	7	0.000104	-0.000017
-4	-3	3	1	8	0.000002	-0.000001
-4	-3	3	2	8	-0.000021	0.000001
-4	-3	3	3	8	0.000015	0.000002
-4	-3	3	4	8	0.000000	0.000000
-4	-3	3	5	8	-0.000280	-0.000017
-4	-3	3	6	8	-0.000108	-0.000021
-4	-3	3	7	8	0.000104	0.000017
-4	-3	3	8	8	0.000271	0.000000
-4	-3	4	1	1	-0.000527	0.000000
-4	-3	4	2	1	-0.000060	0.000006
-4	-3	4	3	1	0.000056	-0.000004
-4	-3	4	4	1	0.000188	0.000008
-4	-3	4	5	1	0.000000	0.000000
-4	-3	4	6	1	-0.000002	0.000008
-4	-3	4	7	1	0.000000	-0.000005
-4	-3	4	8	1	0.000001	0.000005
-4	-3	4	1	2	0.000060	0.000006
-4	-3	4	2	2	0.000177	0.000000
-4	-3	4	3	2	0.000077	0.000000
-4	-3	4	4	2	-0.000024	0.000001
-4	-3	4	5	2	-0.000002	0.000008
-4	-3	4	6	2	0.000000	0.000000
-4	-3	4	7	2	-0.000055	-0.000001
-4	-3	4	8	2	-0.000013	0.000006
-4	-3	4	1	3	-0.000056	-0.000004
-4	-3	4	2	3	0.000077	0.000000
-4	-3	4	3	3	0.000181	0.000000
-4	-3	4	4	3	0.000035	-0.000007
-4	-3	4	5	3	0.000000	-0.000005
-4	-3	4	6	3	0.000055	0.000001
-4	-3	4	7	3	0.000000	0.000000
-4	-3	4	8	3	-0.000010	-0.000002
-4	-3	4	1	4	-0.000188	0.000008
-4	-3	4	2	4	-0.000024	-0.000001
-4	-3	4	3	4	0.000035	0.000007
-4	-3	4	4	4	0.000150	0.000000
-4	-3	4	5	4	0.000001	0.000005
-4	-3	4	6	4	0.000013	-0.000006
-4	-3	4	7	4	0.000010	0.000002
-4	-3	4	8	4	0.000000	0.000000
-4	-3	4	1	5	0.000000	0.000000
-4	-3	4	2	5	0.000002	0.000008
-4	-3	4	3	5	0.000000	-0.000005
-4	-3	4	4	5	-0.000001	0.000005
-4	-3	4	5	5	-0.000527	0.000000
-4	-3	4	6	5	-0.000060	-0.000006
-4	-3	4	7	5	0.000056	0.000004
-4	-3	4	8	5	0.000188	-0.000008
-4	-3	4	1	6	0.000002	0.000008
-4	-3	4	2	6	0.000000	0.000000
-4	-3	4	3	6	0.000055	-0.000001
-4	-3	4	4	6	0.000013	0.000006
-4	-3	4	5	6	0.000060	-0.000006
-4	-3	4	6	6	0.000177	0.000000
-4	-3	4	7	6	0.000077	0.000000
-4	-3	4	8	6	-0.000024	-0.000001
-4	-3	4	1	7	0.000000	-0.000005
-4	-3	4	2	7	-0.000055	0.000001
-4	-3	4	3	7	0.000000	0.000000
-4	-3	4	4	7	0.000010	-0.000002
-4	-3	4	5	7	-0.000056	0.000004
-4	-3	4	6	7	0.000077	0.000000
-4	-3	4	7	7	0.000181	0.000000
-4	-3	4	8	7	0.000035	0.000007
-4	-3	4	1	8	-0.000001	0.000005
-4	-3	4	2	8	-0.000013	-0.000006
-4	-3	4	3	8	-0.000010	0.000002
-4	-3	4	4	8	0.000000	0.000000
-4	-3	4	5	8	-0.000188	-0.000008
-4	-3	4	6	8	-0.000024	0.000001
-4	-3	4	7	8	0.000035	-0.000007
-4	-3	4	8	8	0.000150	0.000000
-4	-2	-4	1	1	-0.000697	0.000000
-4	-2	-4	2	1	0.000013	0.000014
-4	-2	-4	3	1	0.000035	-0.000026
-4	-2	-4	4	1	0.000448	-0.000004
-4	-2	-4	5	1	0.000000	0.000000
-4	-2	-4	6	1	0.000020	0.000025
-4	-2	-4	7	1	-0.000019	-0.000013
-4	-2	-4	8	1	0.000000	0.000006
-4	-2	-4	1	2	-0.000013	0.000014
-4	-2	-4	2	2	0.000278	0.000000
-4	-2	-4	3	2	-0.000023	0.000006
-4	-2	-4	4	2	0.000086	0.000009
-4	-2	-4	5	2	0.000020	0.000025
-4	-2	-4	6	2	0.000000	0.000000
-4	-2	-4	7	2	-0.000005	0.000007
-4	-2	-4	8	2	-0.000003	-0.000013
-4	-2	-4	1	3	-0.000035	-0.000026
-4	-2	-4	2	3	-0.000023	-0.000006
-4	-2	-4	3	3	0.000278	0.000000
-4	-2	-4	4	3	0.000096	0.000013
-4	-2	-4	5	3	-0.000019	-0.000013
-4	-2	-4	6	3	0.000005	-0.000007
-4	-2	-4	7	3	0.000000	0.000000
-4	-2	-4	8	3	0.000003	-0.000008
-4	-2	-4	1	4	-0.000448	-0.000004
-4	-2	-4	2	4	0.000086	-0.000009
-4	-2	-4	3	4	0.000096	-0.000013
-4	-2	-4	4	4	0.000117	0.000000
-4	-2	-4	5	4	0.000000	0.000006
-4	-2	-4	6	4	0.000003	0.000013
-4	-2	-4	7	4	-0.000003	0.000008
-4	-2	-4	8	4	0.000000	0.000000
-4	-2	-4	1	5	0.000000	0.000000
-4	-2	-4	2	5	-0.000020	0.000025
-4	-2	-4	3	5	0.000019	-0.000013
-4	-2	-4	4	5	0.000000	0.000006
-4	-2	-4	5	5	-0.000697	0.000000
-4	-2	-4	6	5	0.000013	-0.000014
-4	-2	-4	7	5	0.000035	0.000026
-4	-2	-4	8	5	0.000448	0.000004
-4	-2	-4	1	6	-0.000020	0.000025
-4	-2	-4	2	6	0.000000	0.000000
-4	-2	-4	3	6	0.000005	0.000007
-4	-2	-4	4	6	0.000003	-0.000013
-4	-2	-4	5	6	-0.000013	-0.000014
-4	-2	-4	6	6	0.000278	0.000000
-4	-2	-4	7	6	-0.000023	-0.000006
-4	-2	-4	8	6	0.000086	-0.000009
-4	-2	-4	1	7	0.000019	-0.000013
-4	-2	-4	2	7	-0.000005	-0.000007
-4	-2	-4	3	7	0.000000	0.000000
-4	-2	-4	4	7	-0.000003	-0.000008
-4	-2	-4	5	7	-0.000035	0.000026
-4	-2	-4	6	7	-0.000023	0.000006
-4	-2	-4	7	7	0.000278	0.000000
-4	-2	-4	8	7	0.000096	-0.000013
-4	-2	-4	1	8	0.000000	0.000006
-4	-2	-4	2	8	-0.000003	0.000013
-4	-2	-4	3	8	0.000003	0.000008
-4	-2	-4	4	8	0.000000	0.000000
-4	-2	-4	5	8	-0.000448	0.000004
-4	-2	-4	6	8	0.000086	0.000009
-4	-2	-4	7	8	0.000096	0.000013
-4	-2	-4	8	8	0.000117	0.000000
-4	-2	-3	1	1	-0.000815	0.000000
-4	-2	-3	2	1	0.000217	0.000013
-4	-2	-3	3	1	0.000101	-0.000008
-4	-2	-3	4	1	0.000612	0.000005
-4	-2	-3	5	1	0.000000	0.000000
-4	-2	-3	6	1	-0.000004	0.000024
-4	-2	-3	7	1	0.000004	0.000006
-4	-2	-3	8	1	0.000011	0.000010
-4	-2	-3	1	2	-0.000217	0.000013
-4	-2	-3	2	2	0.000214	0.000000
-4	-2	-3	3	2	-0.000091	0.000028
-4	-2	-3	4	2	0.000261	0.000009
-4	-2	-3	5	2	-0.000004	0.000024
-4	-2	-3	6	2	0.000000	0.000000
-4	-2	-3	7	2	0.000007	-0.000005
-4	-2	-3	8	2	0.000003	-0.000009
-4	-2	-3	1	3	-0.000101	-0.000008
-4	-2	-3	2	3	-0.000091	-0.000028
-4	-2	-3	3	3	0.000333	0.000000
-4	-2	-3	4	3	0.000108	0.000008
-4	-2	-3	5	3	0.000004	0.000006
-4	-2	-3	6	3	-0.000007	0.000005
-4	-2	-3	7	3	0.000000	0.000000
-4	-2	-3	8	3	-0.000015	0.000007
-4	-2	-3	1	4	-0.000612	0.000005
-4	-2	-3	2	4	0.000261	-0.000009
-4	-2	-3	3	4	0.000108	-0.000008
-4	-2	-3	4	4	0.000241	0.000000
-4	-2	-3	5	4	0.000011	0.000010
-4	-2	-3	6	4	-0.000003	0.000009
-4	-2	-3	7	4	0.000015	-0.000007
-4	-2	-3	8	4	0.000000	0.000000
-4	-2	-3	1	5	0.000000	0.000000
-4	-2	-3	2	5	0.000004	0.000024
-4	-2	-3	3	5	-0.000004	0.000006
-4	-2	-3	4	5	-0.000011	0.000010
-4	-2	-3	5	5	-0.000815	0.000000
-4	-2	-3	6	5	0.000217	-0.000013
-4	-2	-3	7	5	0.000101	0.000008
-4	-2	-3	8	5	0.000612	-0.000005
-4	-2	-3	1	6	0.000004	0.000024
-4	-2	-3	2	6	0.000000	0.000000
-4	-2	-3	3	6	-0.000007	-0.000005
-4	-2	-3	4	6	-0.000003	-0.000009
-4	-2	-3	5	6	-0.000217	-0.000013
-4	-2	-3	6	6	0.000214	0.000000
-4	-2	-3	7	6	-0.000091	-0.000028
-4	-2	-3	8	6	0.000261	-0.000009
-4	-2	-3	1	7	-0.000004	0.000006
-4	-2	-3	2	7	0.000007	0.000005
-4	-2	-3	3	7	0.000000	0.000000
-4	-2	-3	4	7	0.000015	0.000007
-4	-2	-3	5	7	-0.000101	0.000008
-4	-2	-3	6	7	-0.000091	0.000028
-4	-2	-3	7	7	0.000333	0.000000
-4	-2	-3	8	7	0.000108	-0.000008
-4	-2	-3	1	8	-0.000011	0.000010
-4	-2	-3	2	8	0.000003	0.000009
-4	-2	-3	3	8	-0.000015	-0.000007
-4	-2	-3	4	8	0.000000	0.000000
-4	-2	-3	5	8	-0.000612	-0.000005
-4	-2	-3	6	8	0.000261	0.000009
-4	-2	-3	7	8	0.000108	0.000008
-4	-2	-3	8	8	0.000241	0.000000
-4	-2	-2	1	1	-0.000606	0.000000
-4	-2	-2	2	1	0.000696	0.000010
-4	-2	-2	3	1	0.000149	0.000007
-4	-2	-2	4	1	0.000708	0.000003
-4	-2	-2	5	1	0.000000	0.000000
-4	-2	-2	6	1	0.000002	0.000014
-4	-2	-2	7	1	0.000008	0.000000
-4	-2	-2	8	1	0.000010	-0.000014
-4	-2	-2	1	2	-0.000696	0.000010
-4	-2	-2	2	2	0.000174	0.000000
-4	-2	-2	3	2	-0.000008	0.000037
-4	-2	-2	4	2	0.000893	0.000001
-4	-2	-2	5	2	0.000002	0.000014
-4	-2	-2	6	2	0.000000	0.000000
-4	-2	-2	7	2	0.000008	0.000001
-4	-2	-2	8	2	-0.000001	0.000021
-4	-2	-2	1	3	-0.000149	0.000007
-4	-2	-2	2	3	-0.000008	-0.000037
-4	-2	-2	3	3	0.000312	0.000000
-4	-2	-2	4	3	-0.000003	-0.000009
-4	-2	-2	5	3	0.000008	0.000000
-4	-2	-2	6	3	-0.000008	-0.000001
-4	-2	-2	7	3	0.000000	0.000000
-4	-2	-2	8	3	-0.000038	0.000001
-4	-2	-2	1	4	-0.000708	0.000003
-4	-2	-2	2	4	0.000893	-0.000001
-4	-2	-2	3	4	-0.000003	0.000009
-4	-2	-2	4	4	0.000175	0.000000
-4	-2	-2	5	4	0.000010	-0.000014
-4	-2	-2	6	4	0.000001	-0.000021
-4	-2	-2	7	4	0.000038	-0.000001
-4	-2	-2	8	4	0.000000	0.000000
-4	-2	-2	1	5	0.000000	0.000000
-4	-2	-2	2	5	-0.000002	0.000014
-4	-2	-2	3	5	-0.000008	0.000000
-4	-2	-2	4	5	-0.000010	-0.000014
-4	-2	-2	5	5	-0.000606	0.000000
-4	-2	-2	6	5	0.000696	-0.000010
-4	-2	-2	7	5	0.000149	-0.000007
-4	-2	-2	8	5	0.000708	-0.000003
-4	-2	-2	1	6	-0.000002	0.000014
-4	-2	-2	2	6	0.000000	0.000000
-4	-2	-2	3	6	-0.000008	0.000001
-4	-2	-2	4	6	0.000001	0.000021
-4	-2	-2	5	6	-0.000696	-0.000010
-4	-2	-2	6	6	0.000174	0.000000
-4	-2	-2	7	6	-0.000008	-0.000037
-4	-2	-2	8	6	0.000893	-0.000001
-4	-2	-2	1	7	-0.000008	0.000000
-4	-2	-2	2	7	0.000008	-0.000001
-4	-2	-2	3	7	0.000000	0.000000
-4	-2	-2	4	7	0.000038	0.000001
-4	-2	-2	5	7	-0.000149	-0.000007
-4	-2	-2	6	7	-0.000008	0.000037
-4	-2	-2	7	7	0.000312	0.000000
-4	-2	-2	8	7	-0.000003	0.000009
-4	-2	-2	1	8	-0.000010	-0.000014
-4	-2	-2	2	8	-0.000001	-0.000021
-4	-2	-2	3	8	-0.000038	-0.000001
-4	-2	-2	4	8	0.000000	0.000000
-4	-2	-2	5	8	-0.000708	-0.000003
-4	-2	-2	6	8	0.000893	0.000001
-4	-2	-2	7	8	-0.000003	-0.000009
-4	-2	-2	8	8	0.000175	0.000000
-4	-2	-1	1	1	-0.001512	0.000000
-4	-2	-1	2	1	0.001139	0.000018
-4	-2	-1	3	1	-0.000014	-0.000036
-4	-2	-1	4	1	0.002668	-0.000009
-4	-2	-1	5	1	0.000000	0.000000
-4	-2	-1	6	1	-0.000007	0.000029
-4	-2	-1	7	1	-0.000040	-0.000004
-4	-2	-1	8	1	-0.000003	-0.000002
-4	-2	-1	1	2	-0.001139	0.000018
-4	-2	-1	2	2	-0.000230	0.000000
-4	-2	-1	3	2	0.000243	-0.000006
-4	-2	-1	4	2	0.001699	0.000005
-4	-2	-1	5	2	-0.000007	0.000029
-4	-2	-1	6	2	0.000000	0.000000
-4	-2	-1	7	2	0.000017	-0.000017
-4	-2	-1	8	2	-0.000064	-0.000019
-4	-2	-1	1	3	0.000014	-0.000036
-4	-2	-1	2	3	0.000243	0.000006
-4	-2	-1	3	3	0.000973	0.000000
-4	-2	-1	4	3	0.001314	-0.000044
-4	-2	-1	5	3	-0.000040	-0.000004
-4	-2	-1	6	3	-0.000017	0.000017
-4	-2	-1	7	3	0.000000	0.000000
-4	-2	-1	8	3	0.000038	0.000000
-4	-2	-1	1	4	-0.002668	-0.000009
-4	-2	-1	2	4	0.001699	-0.000005
-4	-2	-1	3	4	0.001314	0.000044
-4	-2	-1	4	4	0.000920	0.000000
-4	-2	-1	5	4	-0.000003	-0.000002
-4	-2	-1	6	4	0.000064	0.000019
-4	-2	-1	7	4	-0.000038	0.000000
-4	-2	-1	8	4	0.000000	0.000000
-4	-2	-1	1	5	0.000000	0.000000
-4	-2	-1	2	5	0.000007	0.000029
-4	-2	-1	3	5	0.000040	-0.000004
-4	-2	-1	4	5	0.000003	-0.000002
-4	-2	-1	5	5	-0.001512	0.000000
-4	-2	-1	6	5	0.001139	-0.000018
-4	-2	-1	7	5	-0.000014	0.000036
-4	-2	-1	8	5	0.002668	0.000009
-4	-2	-1	1	6	0.000007	0.000029
-4	-2	-1	2	6	0.000000	0.000000
-4	-2	-1	3	6	-0.000017	-0.000017
-4	-2	-1	4	6	0.000064	-0.000019
-4	-2	-1	5	6	-0.001139	-0.000018
-4	-2	-1	6	6	-0.000230	0.000000
-4	-2	-1	7	6	0.000243	0.000006
-4	-2	-1	8	6	0.001699	-0.000005
-4	-2	-1	1	7	0.000040	-0.000004
-4	-2	-1	2	7	0.000017	0.000017
-4	-2	-1	3	7	0.000000	0.000000
-4	-2	-1	4	7	-0.000038	0.000000
-4	-2	-1	5	7	0.000014	0.000036
-4	-2	-1	6	7	0.000243	-0.000006
-4	-2	-1	7	7	0.000973	0.000000
-4	-2	-1	8	7	0.001314	0.000044
-4	-2	-1	1	8	0.000003	-0.000002
-4	-2	-1	2	8	-0.000064	0.000019
-4	-2	-1	3	8	0.000038	0.000000
-4	-2	-1	4	8	0.000000	0.000000
-4	-2	-1	5	8	-0.002668	0.000009
-4	-2	-1	6	8	0.001699	0.000005
-4	-2	-1	7	8	0.001314	-0.000044
-4	-2	-1	8	8	0.000920	0.000000
-4	-2	0	1	1	-0.004857	0.000000
-4	-2	0	2	1	-0.000116	-0.000001
-4	-2	0	3	1	0.001083	-0.000180
-4	-2	0	4	1	0.006587	0.000023
-4	-2	0	5	1	0.000000	0.000000
-4	-2	0	6	1	0.000001	0.000040
-4	-2	0	7	1	0.000003	0.000001
-4	-2	0	8	1	0.000003	0.000007
-4	-2	0	1	2	0.000116	-0.000001
-4	-2	0	2	2	-0.000766	0.000000
-4	-2	0	3	2	0.000014	-0.000009
-4	-2	0	4	2	0.000000	0.000000
-4	-2	0	5	2	0.000001	0.000040
-4	-2	0	6	2	0.000000	0.000000
-4	-2	0	7	2	0.000064	0.000023
-4	-2	0	8	2	-0.000077	-0.000034
-4	-2	0	1	3	-0.001083	-0.000180
-4	-2	0	2	3	0.000014	0.000009
-4	-2	0	3	3	0.001092	0.000000
-4	-2	0	4	3	0.003249	0.000125
-4	-2	0	5	3	0.000003	0.000001
-4	-2	0	6	3	-0.000064	-0.000023
-4	-2	0	7	3	0.000000	0.000000
-4	-2	0	8	3	-0.000005	-0.000009
-4	-2	0	1	4	-0.006587	0.000023
-4	-2	0	2	4	0.000000	0.000000
-4	-2	0	3	4	0.003249	-0.000125
-4	-2	0	4	4	0.002118	0.000000
-4	-2	0	5	4	0.000003	0.000007
-4	-2	0	6	4	0.000077	0.000034
-4	-2	0	7	4	0.000005	0.000009
-4	-2	0	8	4	0.000000	0.000000
-4	-2	0	1	5	0.000000	0.000000
-4	-2	0	2	5	-0.000001	0.000040
-4	-2	0	3	5	-0.000003	0.000001
-4	-2	0	4	5	-0.000003	0.000007
-4	-2	0	5	5	-0.004857	0.000000
-4	-2	0	6	5	-0.000116	0.000001
-4	-2	0	7	5	0.001083	0.000180
-4	-2	0	8	5	0.006587	-0.000023
-4	-2	0	1	6	-0.000001	0.000040
-4	-2	0	2	6	0.000000	0.000000
-4	-2	0	3	6	-0.000064	0.000023
-4	-2	0	4	6	0.000077	-0.000034
-4	-2	0	5	6	0.000116	0.000001
-4	-2	0	6	6	-0.000766	0.000000
-4	-2	0	7	6	0.000014	0.000009
-4	-2	0	8	6	0.000000	0.000000
-4	-2	0	1	7	-0.000003	0.000001
-4	-2	0	2	7	0.000064	-0.000023
-4	-2	0	3	7	0.000000	0.000000
-4	-2	0	4	7	0.000005	-0.000009
-4	-2	0	5	7	-0.001083	0.000180
-4	-2	0	6	7	0.000014	-0.000009
-4	-2	0	7	7	0.001092	0.000000
-4	-2	0	8	7	0.003249	-0.000125
-4	-2	0	1	8	-0.000003	0.000007
-4	-2	0	2	8	-0.000077	0.000034
-4	-2	0	3	8	-0.000005	0.000009
-4	-2	0	4	8	0.000000	0.000000
-4	-2	0	5	8	-0.006587	-0.000023
-4	-2	0	6	8	0.000000	0.000000
-4	-2	0	7	8	0.003249	0.000125
-4	-2	0	8	8	0.002118	0.000000
-4	-2	1	1	1	-0.001501	0.000000
-4	-2	1	2	1	-0.001240	-0.000017
-4	-2	1	3	1	0.000078	-0.000038
-4	-2	1	4	1	0.002685	-0.000014
-4	-2	1	5	1	0.000000	0.000000
-4	-2	1	6	1	-0.000003	0.000024
-4	-2	1	7	1	0.000045	0.000007
-4	-2	1	8	1	0.000005	-0.000006
-4	-2	1	1	2	0.001240	-0.000017
-4	-2	1	2	2	-0.000412	0.000000
-4	-2	1	3	2	-0.000270	0.000000
-4	-2	1	4	2	-0.001728	0.000003
-4	-2	1	5	2	-0.000003	0.000024
-4	-2	1	6	2	0.000000	0.000000
-4	-2	1	7	2	0.000038	-0.000006
-4	-2	1	8	2	-0.000060	0.000005
-4	-2	1	1	3	-0.000078	-0.000038
-4	-2	1	2	3	-0.000270	0.000000
-4	-2	1	3	3	0.000915	0.000000
-4	-2	1	4	3	0.001433	-0.000046
-4	-2	1	5	3	0.000045	0.000007
-4	-2	1	6	3	-0.000038	0.000006
-4	-2	1	7	3	0.000000	0.000000
-4	-2	1	8	3	-0.000025	0.000013
-4	-2	1	1	4	-0.002685	-0.000014
-4	-2	1	2	4	-0.001728	-0.000003
-4	-2	1	3	4	0.001433	0.000046
-4	-2	1	4	4	0.000824	0.000000
-4	-2	1	5	4	0.000005	-0.000006
-4	-2	1	6	4	0.000060	-0.000005
-4	-2	1	7	4	0.000025	-0.000013
-4	-2	1	8	4	0.000000	0.000000
-4	-2	1	1	5	0.000000	0.000000
-4	-2	1	2	5	0.000003	0.000024
-4	-2	1	3	5	-0.000045	0.000007
-4	-2	1	4	5	-0.000005	-0.000006
-4	-2	1	5	5	-0.001501	0.000000
-4	-2	1	6	5	-0.001240	0.000017
-4	-2	1	7	5	0.000078	0.000038
-4	-2	1	8	5	0.002685	0.000014
-4	-2	1	1	6	0.000003	0.000024
-4	-2	1	2	6	0.000000	0.000000
-4	-2	1	3	6	-0.000038	-0.000006
-4	-2	1	4	6	0.000060	0.000005
-4	-2	1	5	6	0.001240	0.000017
-4	-2	1	6	6	-0.000412	0.000000
-4	-2	1	7	6	-0.000270	0.000000
-4	-2	1	8	6	-0.001728	-0.000003
-4	-2	1	1	7	-0.000045	0.000007
-4	-2	1	2	7	0.000038	0.000006
-4	-2	1	3	7	0.000000	0.000000
-4	-2	1	4	7	0.000025	0.000013
-4	-2	1	5	7	-0.000078	0.000038
-4	-2	1	6	7	-0.000270	0.000000
-4	-2	1	7	7	0.000915	0.000000
-4	-2	1	8	7	0.001433	0.000046
-4	-2	1	1	8	-0.000005	-0.000006
-4	-2	1	2	8	-0.000060	-0.000005
-4	-2	1	3	8	-0.000025	-0.000013
-4	-2	1	4	8	0.000000	0.000000
-4	-2	1	5	8	-0.002685	0.000014
-4	-2	1	6	8	-0.001728	0.000003
-4	-2	1	7	8	0.001433	-0.000046
-4	-2	1	8	8	0.000824	0.000000
-4	-2	2	1	1	-0.000609	0.000000
-4	-2	2	2	1	-0.000685	-0.000014
-4	-2	2	3	1	0.000048	0.000001
-4	-2	2	4	1	0.000714	-0.000004
-4	-2	2	5	1	0.000000	0.000000
-4	-2	2	6	1	-0.000005	0.000012
-4	-2	2	7	1	0.000000	-0.000002
-4	-2	2	8	1	-0.000013	0.000007
-4	-2	2	1	2	0.000685	-0.000014
-4	-2	2	2	2	0.000093	0.000000
-4	-2	2	3	2	-0.000071	-0.000029
-4	-2	2	4	2	-0.000877	-0.000008
-4	-2	2	5	2	-0.000005	0.000012
-4	-2	2	6	2	0.000000	0.000000
-4	-2	2	7	2	0.000010	-0.000001
-4	-2	2	8	2	-0.000007	0.000019
-4	-2	2	1	3	-0.000048	0.000001
-4	-2	2	2	3	-0.000071	0.000029
-4	-2	2	3	3	0.000415	0.000000
-4	-2	2	4	3	0.000050	-0.000008
-4	-2	2	5	3	0.000000	-0.000002
-4	-2	2	6	3	-0.000010	0.000001
-4	-2	2	7	3	0.000000	0.000000
-4	-2	2	8	3	0.000027	-0.000013
-4	-2	2	1	4	-0.000714	-0.000004
-4	-2	2	2	4	-0.000877	0.000008
-4	-2	2	3	4	0.000050	0.000008
-4	-2	2	4	4	0.000238	0.000000
-4	-2	2	5	4	-0.000013	0.000007
-4	-2	2	6	4	0.000007	-0.000019
-4	-2	2	7	4	-0.000027	0.000013
-4	-2	2	8	4	0.000000	0.000000
-4	-2	2	1	5	0.000000	0.000000
-4	-2	2	2	5	0.000005	0.000012
-4	-2	2	3	5	0.000000	-0.000002
-4	-2	2	4	5	0.000013	0.000007
-4	-2	2	5	5	-0.000609	0.000000
-4	-2	2	6	5	-0.000685	0.000014
-4	-2	2	7	5	0.000048	-0.000001
-4	-2	2	8	5	0.000714	0.000004
-4	-2	2	1	6	0.000005	0.000012
-4	-2	2	2	6	0.000000	0.000000
-4	-2	2	3	6	-0.000010	-0.000001
-4	-2	2	4	6	0.000007	0.000019
-4	-2	2	5	6	0.000685	0.000014
-4	-2	2	6	6	0.000093	0.000000
-4	-2	2	7	6	-0.000071	0.000029
-4	-2	2	8	6	-0.000877	0.000008
-4	-2	2	1	7	0.000000	-0.000002
-4	-2	2	2	7	0.000010	0.000001
-4	-2	2	3	7	0.000000	0.000000
-4	-2	2	4	7	-0.000027	-0.000013
-4	-2	2	5	7	-0.000048	-0.000001
-4	-2	2	6	7	-0.000071	-0.000029
-4	-2	2	7	7	0.000415	0.000000
-4	-2	2	8	7	0.000050	0.000008
-4	-2	2	1	8	0.000013	0.000007
-4	-2	2	2	8	-0.000007	-0.000019
-4	-2	2	3	8	0.000027	0.000013
-4	-2	2	4	8	0.000000	0.000000
-4	-2	2	5	8	-0.000714	0.000004
-4	-2	2	6	8	-0.000877	-0.000008
-4	-2	2	7	8	0.000050	-0.000008
-4	-2	2	8	8	0.000238	0.000000
-4	-2	3	1	1	-0.000809	0.000000
-4	-2	3	2	1	-0.000226	-0.000009
-4	-2	3	3	1	0.000086	-0.000010
-4	-2	3	4	1	0.000619	0.000008
-4	-2	3	5	1	0.000000	0.000000
-4	-2	3	6	1	-0.000008	0.000021
-4	-2	3	7	1	-0.000003	-0.000007
-4	-2	3	8	1	-0.000008	-0.000006
-4	-2	3	1	2	0.000226	-0.000009
-4	-2	3	2	2	0.000296	0.000000
-4	-2	3	3	2	0.000079	-0.000015
-4	-2	3	4	2	-0.000359	-0.000006
-4	-2	3	5	2	-0.000008	0.000021
-4	-2	3	6	2	0.000000	0.000000
-4	-2	3	7	2	-0.000003	-0.000005
-4	-2	3	8	2	0.000002	-0.000013
-4	-2	3	1	3	-0.000086	-0.000010
-4	-2	3	2	3	0.000079	0.000015
-4	-2	3	3	3	0.000266	0.000000
-4	-2	3	4	3	0.000084	0.000005
-4	-2	3	5	3	-0.000003	-0.000007
-4	-2	3	6	3	0.000003	0.000005
-4	-2	3	7	3	0.000000	0.000000
-4	-2	3	8	3	0.000016	-0.000001
-4	-2	3	1	4	-0.000619	0.000008
-4	-2	3	2	4	-0.000359	0.000006
-4	-2	3	3	4	0.000084	-0.000005
-4	-2	3	4	4	0.000203	0.000000
-4	-2	3	5	4	-0.000008	-0.000006
-4	-2	3	6	4	-0.000002	0.000013
-4	-2	3	7	4	-0.000016	0.000001
-4	-2	3	8	4	0.000000	0.000000
-4	-2	3	1	5	0.000000	0.000000
-4	-2	3	2	5	0.000008	0.000021
-4	-2	3	3	5	0.000003	-0.000007
-4	-2	3	4	5	0.000008	-0.000006
-4	-2	3	5	5	-0.000809	0.000000
-4	-2	3	6	5	-0.000226	0.000009
-4	-2	3	7	5	0.000086	0.000010
-4	-2	3	8	5	0.000619	-0.000008
-4	-2	3	1	6	0.000008	0.000021
-4	-2	3	2	6	0.000000	0.000000
-4	-2	3	3	6	0.000003	-0.000005
-4	-2	3	4	6	-0.000002	-0.000013
-4	-2	3	5	6	0.000226	0.000009
-4	-2	3	6	6	0.000296	0.000000
-4	-2	3	7	6	0.000079	0.000015
-4	-2	3	8	6	-0.000359	0.000006
-4	-2	3	1	7	0.000003	-0.000007
-4	-2	3	2	7	-0.000003	0.000005
-4	-2	3	3	7	0.000000	0.000000
-4	-2	3	4	7	-0.000016	-0.000001
-4	-2	3	5	7	-0.000086	0.000010
-4	-2	3	6	7	0.000079	-0.000015
-4	-2	3	7	7	0.000266	0.000000
-4	-2	3	8	7	0.000084	-0.000005
-4	-2	3	1	8	0.000008	-0.000006
-4	-2	3	2	8	0.000002	0.000013
-4	-2	3	3	8	0.000016	0.000001
-4	-2	3	4	8	0.000000	0.000000
-4	-2	3	5	8	-0.000619	-0.000008
-4	-2	3	6	8	-0.000359	-0.000006
-4	-2	3	7	8	0.000084	0.000005
-4	-2	3	8	8	0.000203	0.000000
-4	-2	4	1	1	-0.000632	0.000000
-4	-2	4	2	1	-0.000138	-0.000013
-4	-2	4	3	1	0.000089	-0.000026
-4	-2	4	4	1	0.000462	0.000003
-4	-2	4	5	1	0.000000	0.000000
-4	-2	4	6	1	0.000021	0.000028
-4	-2	4	7	1	0.000020	0.000014
-4	-2	4	8	1	-0.000001	0.000006
-4	-2	4	1	2	0.000138	-0.000013
-4	-2	4	2	2	0.000343	0.000000
-4	-2	4	3	2	-0.000029	-0.000017
-4	-2	4	4	2	-0.000096	-0.000009
-4	-2	4	5	2	0.000021	0.000028
-4	-2	4	6	2	0.000000	0.000000
-4	-2	4	7	2	-0.000011	0.000008
-4	-2	4	8	2	0.000000	-0.000019
-4	-2	4	1	3	-0.000089	-0.000026
-4	-2	4	2	3	-0.000029	0.000017
-4	-2	4	3	3	0.000340	0.000000
-4	-2	4	4	3	0.000104	0.000014
-4	-2	4	5	3	0.000020	0.000014
-4	-2	4	6	3	0.000011	-0.000008
-4	-2	4	7	3	0.000000	0.000000
-4	-2	4	8	3	-0.000007	0.000006
-4	-2	4	1	4	-0.000462	0.000003
-4	-2	4	2	4	-0.000096	0.000009
-4	-2	4	3	4	0.000104	-0.000014
-4	-2	4	4	4	0.000122	0.000000
-4	-2	4	5	4	-0.000001	0.000006
-4	-2	4	6	4	0.000000	0.000019
-4	-2	4	7	4	0.000007	-0.000006
-4	-2	4	8	4	0.000000	0.000000
-4	-2	4	1	5	0.000000	0.000000
-4	-2	4	2	5	-0.000021	0.000028
-4	-2	4	3	5	-0.000020	0.000014
-4	-2	4	4	5	0.000001	0.000006
-4	-2	4	5	5	-0.000632	0.000000
-4	-2	4	6	5	-0.000138	0.000013
-4	-2	4	7	5	0.000089	0.000026
-4	-2	4	8	5	0.000462	-0.000003
-4	-2	4	1	6	-0.000021	0.000028
-4	-2	4	2	6	0.000000	0.000000
-4	-2	4	3	6	0.000011	0.000008
-4	-2	4	4	6	0.000000	-0.000019
-4	-2	4	5	6	0.000138	0.000013
-4	-2	4	6	6	0.000343	0.000000
-4	-2	4	7	6	-0.000029	0.000017
-4	-2	4	8	6	-0.000096	0.000009
-4	-2	4	1	7	-0.000020	0.000014
-4	-2	4	2	7	-0.000011	-0.000008
-4	-2	4	3	7	0.000000	0.000000
-4	-2	4	4	7	0.000007	0.000006
-4	-2	4	5	7	-0.000089	0.000026
-4	-2	4	6	7	-0.000029	-0.000017
-4	-2	4	7	7	0.000340	0.000000
-4	-2	4	8	7	0.000104	-0.000014
-4	-2	4	1	8	0.000001	0.000006
-4	-2	4	2	8	0.000000	0.000019
-4	-2	4	3	8	-0.000007	-0.000006
-4	-2	4	4	8	0.000000	0.000000
-4	-2	4	5	8	-0.000462	-0.000003
-4	-2	4	6	8	-0.000096	-0.000009
-4	-2	4	7	8	0.000104	0.000014
-4	-2	4	8	8	0.000122	0.000000
-4	-1	-4	1	1	-0.001579	0.000000
-4	-1	-4	2	1	0.000232	0.000003
-4	-1	-4	3	1	0.000283	-0.000037
-4	-1	-4	4	1	0.000674	-0.000004
-4	-1	-4	5	1	0.000000	0.000000
-4	-1	-4	6	1	0.000026	0.000037
-4	-1	-4	7	1	-0.000024	-0.000003
-4	-1	-4	8	1	0.000000	0.000005
-4	-1	-4	1	2	-0.000232	0.000003
-4	-1	-4	2	2	0.000825	0.000000
-4	-1	-4	3	2	0.000201	0.000021
-4	-1	-4	4	2	0.000177	0.000006
-4	-1	-4	5	2	0.000026	0.000037
-4	-1	-4	6	2	0.000000	0.000000
-4	-1	-4	7	2	0.000020	0.000021
-4	-1	-4	8	2	0.000003	0.000007
-4	-1	-4	1	3	-0.000283	-0.000037
-4	-1	-4	2	3	0.000201	-0.000021
-4	-1	-4	3	3	0.000831	0.000000
-4	-1	-4	4	3	0.000167	-0.000008
-4	-1	-4	5	3	-0.000024	-0.000003
-4	-1	-4	6	3	-0.000020	-0.000021
-4	-1	-4	7	3	0.000000	0.000000
-4	-1	-4	8	3	-0.000002	-0.000006
-4	-1	-4	1	4	-0.000674	-0.000004
-4	-1	-4	2	4	0.000177	-0.000006
-4	-1	-4	3	4	0.000167	0.000008
-4	-1	-4	4	4	-0.000202	0.000000
-4	-1	-4	5	4	0.000000	0.000005
-4	-1	-4	6	4	-0.000003	-0.000007
-4	-1	-4	7	4	0.000002	0.000006
-4	-1	-4	8	4	0.000000	0.000000
-4	-1	-4	1	5	0.000000	0.000000
-4	-1	-4	2	5	-0.000026	0.000037
-4	-1	-4	3	5	0.000024	-0.000003
-4	-1	-4	4	5	0.000000	0.000005
-4	-1	-4	5	5	-0.001579	0.000000
-4	-1	-4	6	5	0.000232	-0.000003
-4	-1	-4	7	5	0.000283	0.000037
-4	-1	-4	8	5	0.000674	0.000004
-4	-1	-4	1	6	-0.000026	0.000037
-4	-1	-4	2	6	0.000000	0.000000
-4	-1	-4	3	6	-0.000020	0.000021
-4	-1	-4	4	6	-0.000003	0.000007
-4	-1	-4	5	6	-0.000232	-0.000003
-4	-1	-4	6	6	0.000825	0.000000
-4	-1	-4	7	6	0.000201	-0.000021
-4	-1	-4	8	6	0.000177	-0.000006
-4	-1	-4	1	7	0.000024	-0.000003
-4	-1	-4	2	7	0.000020	-0.000021
-4	-1	-4	3	7	0.000000	0.000000
-4	-1	-4	4	7	0.000002	-0.000006
-4	-1	-4	5	7	-0.000283	0.000037
-4	-1	-4	6	7	0.000201	0.000021
-4	-1	-4	7	7	0.000831	0.000000
-4	-1	-4	8	7	0.000167	0.000008
-4	-1	-4	1	8	0.000000	0.000005
-4	-1	-4	2	8	0.000003	-0.000007
-4	-1	-4	3	8	-0.000002	0.000006
-4	-1	-4	4	8	0.000000	0.000000
-4	-1	-4	5	8	-0.000674	0.000004
-4	-1	-4	6	8	0.000177	0.000006
-4	-1	-4	7	8	0.000167	-0.000008
-4	-1	-4	8	8	-0.000202	0.000000
-4	-1	-3	1	1	-0.001816	0.000000
-4	-1	-3	2	1	0.000863	0.000014
-4	-1	-3	3	1	0.000483	-0.000031
-4	-1	-3	4	1	0.000959	0.000005
-4	-1	-3	5	1	0.000000	0.000000
-4	-1	-3	6	1	0.000020	0.000039
-4	-1	-3	7	1	0.000006	-0.000009
-4	-1	-3	8	1	0.000003	-0.000028
-4	-1	-3	1	2	-0.000863	0.000014
-4	-1	-3	2	2	0.000920	0.000000
-4	-1	-3	3	2	0.000322	0.000012
-4	-1	-3	4	2	0.000571	0.000017
-4	-1	-3	5	2	0.000020	0.000039
-4	-1	-3	6	2	0.000000	0.000000
-4	-1	-3	7	2	0.000028	0.000016
-4	-1	-3	8	2	0.000022	0.000003
-4	-1	-3	1	3	-0.000483	-0.000031
-4	-1	-3	2	3	0.000322	-0.000012
-4	-1	-3	3	3	0.000953	0.000000
-4	-1	-3	4	3	0.000217	0.000015
-4	-1	-3	5	3	0.000006	-0.000009
-4	-1	-3	6	3	-0.000028	-0.000016
-4	-1	-3	7	3	0.000000	0.000000
-4	-1	-3	8	3	-0.000010	-0.000015
-4	-1	-3	1	4	-0.000959	0.000005
-4	-1	-3	2	4	0.000571	-0.000017
-4	-1	-3	3	4	0.000217	-0.000015
-4	-1	-3	4	4	-0.000271	0.000000
-4	-1	-3	5	4	0.000003	-0.000028
-4	-1	-3	6	4	-0.000022	-0.000003
-4	-1	-3	7	4	0.000010	0.000015
-4	-1	-3	8	4	0.000000	0.000000
-4	-1	-3	1	5	0.000000	0.000000
-4	-1	-3	2	5	-0.000020	0.000039
-4	-1	-3	3	5	-0.000006	-0.000009
-4	-1	-3	4	5	-0.000003	-0.000028
-4	-1	-3	5	5	-0.001816	0.000000
-4	-1	-3	6	5	0.000863	-0.000014
-4	-1	-3	7	5	0.000483	0.000031
-4	-1	-3	8	5	0.000959	-0.000005
-4	-1	-3	1	6	-0.000020	0.000039
-4	-1	-3	2	6	0.000000	0.000000
-4	-1	-3	3	6	-0.000028	0.000016
-4	-1	-3	4	6	-0.000022	0.000003
-4	-1	-3	5	6	-0.000863	-0.000014
-4	-1	-3	6	6	0.000920	0.000000
-4	-1	-3	7	6	0.000322	-0.000012
-4	-1	-3	8	6	0.000571	-0.000017
-4	-1	-3	1	7	-0.000006	-0.000009
-4	-1	-3	2	7	0.000028	-0.000016
-4	-1	-3	3	7	0.000000	0.000000
-4	-1	-3	4	7	0.000010	-0.000015
-4	-1	-3	5	7	-0.000483	0.000031
-4	-1	-3	6	7	0.000322	0.000012
-4	-1	-3	7	7	0.000953	0.000000
-4	-1	-3	8	7	0.000217	-0.000015
-4	-1	-3	1	8	-0.000003	-0.000028
-4	-1	-3	2	8	0.000022	-0.000003
-4	-1	-3	3	8	-0.000010	0.000015
-4	-1	-3	4	8	0.000000	0.000000
-4	-1	-3	5	8	-0.000959	-0.000005
-4	-1	-3	6	8	0.000571	0.000017
-4	-1	-3	7	8	0.000217	0.000015
-4	-1	-3	8	8	-0.000271	0.000000
-4	-1	-2	1	1	-0.001495	0.000000
-4	-1	-2	2	1	0.002621	-0.000002
-4	-1	-2	3	1	-0.000021	-0.000040
-4	-1	-2	4	1	0.001156	-0.000007
-4	-1	-2	5	1	0.000000	0.000000
-4	-1	-2	6	1	-0.000009	0.000003
-4	-1	-2	7	1	-0.000035	0.000004
-4	-1	-2	8	1	0.000018	-0.000028
-4	-1	-2	1	2	-0.002621	-0.000002
-4	-1	-2	2	2	0.000899	0.000000
-4	-1	-2	3	2	0.001288	-0.000039
-4	-1	-2	4	2	0.001728	0.000064
-4	-1	-2	5	2	-0.000009	0.000003
-4	-1	-2	6	2	0.000000	0.000000
-4	-1	-2	7	2	0.000044	-0.000001
-4	-1	-2	8	2	-0.000006	-0.000019
-4	-1	-2	1	3	0.000021	-0.000040
-4	-1	-2	2	3	0.001288	0.000039
-4	-1	-2	3	3	0.000957	0.000000
-4	-1	-2	4	3	0.000250	-0.000017
-4	-1	-2	5	3	-0.000035	0.000004
-4	-1	-2	6	3	-0.000044	0.000001
-4	-1	-2	7	3	0.000000	0.000000
-4	-1	-2	8	3	0.000005	-0.000016
-4	-1	-2	1	4	-0.001156	-0.000007
-4	-1	-2	2	4	0.001728	-0.000064
-4	-1	-2	3	4	0.000250	0.000017
-4	-1	-2	4	4	-0.000210	0.000000
-4	-1	-2	5	4	0.000018	-0.000028
-4	-1	-2	6	4	0.000006	0.000019
-4	-1	-2	7	4	-0.000005	0.000016
-4	-1	-2	8	4	0.000000	0.000000
-4	-1	-2	1	5	0.000000	0.000000
-4	-1	-2	2	5	0.000009	0.000003
-4	-1	-2	3	5	0.000035	0.000004
-4	-1	-2	4	5	-0.000018	-0.000028
-4	-1	-2	5	5	-0.001495	0.000000
-4	-1	-2	6	5	0.002621	0.000002
-4	-1	-2	7	5	-0.000021	0.000040
-4	-1	-2	8	5	0.001156	0.000007
-4	-1	-2	1	6	0.000009	0.000003
-4	-1	-2	2	6	0.000000	0.000000
-4	-1	-2	3	6	-0.000044	-0.000001
-4	-1	-2	4	6	0.000006	-0.000019
-4	-1	-2	5	6	-0.002621	0.000002
-4	-1	-2	6	6	0.000899	0.000000
-4	-1	-2	7	6	0.001288	0.000039
-4	-1	-2	8	6	0.001728	-0.000064
-4	-1	-2	1	7	0.000035	0.000004
-4	-1	-2	2	7	0.000044	0.000001
-4	-1	-2	3	7	0.000000	0.000000
-4	-1	-2	4	7	-0.000005	-0.000016
-4	-1	-2	5	7	0.000021	0.000040
-4	-1	-2	6	7	0.001288	-0.000039
-4	-1	-2	7	7	0.000957	0.000000
-4	-1	-2	8	7	0.000250	0.000017
-4	-1	-2	1	8	-0.000018	-0.000028
-4	-1	-2	2	8	-0.000006	0.000019
-4	-1	-2	3	8	0.000005	0.000016
-4	-1	-2	4	8	0.000000	0.000000
-4	-1	-2	5	8	-0.001156	0.000007
-4	-1	-2	6	8	0.001728	0.000064
-4	-1	-2	7	8	0.000250	-0.000017
-4	-1	-2	8	8	-0.000210	0.000000
-4	-1	-1	1	1	-0.005749	0.000000
-4	-1	-1	2	1	0.004723	0.000015
-4	-1	-1	3	1	0.001986	-0.000055
-4	-1	-1	4	1	0.004788	0.000021
-4	-1	-1	5	1	0.000000	0.000000
-4	-1	-1	6	1	0.000021	-0.000011
-4	-1	-1	7	1	-0.000054	0.000000
-4	-1	-1	8	1	0.000014	0.000011
-4	-1	-1	1	2	-0.004723	0.000015
-4	-1	-1	2	2	-0.001324	0.000000
-4	-1	-1	3	2	0.002745	0.000035
-4	-1	-1	4	2	0.002573	-0.000001
-4	-1	-1	5	2	0.000021	-0.000011
-4	-1	-1	6	2	0.000000	0.000000
-4	-1	-1	7	2	0.000034	-0.000004
-4	-1	-1	8	2	0.000001	-0.000012
-4	-1	-1	1	3	-0.001986	-0.000055
-4	-1	-1	2	3	0.002745	-0.000035
-4	-1	-1	3	3	0.008694	0.000000
-4	-1	-1	4	3	0.002784	-0.000035
-4	-1	-1	5	3	-0.000054	0.000000
-4	-1	-1	6	3	-0.000034	0.000004
-4	-1	-1	7	3	0.000000	0.000000
-4	-1	-1	8	3	-0.000036	-0.000004
-4	-1	-1	1	4	-0.004788	0.000021
-4	-1	-1	2	4	0.002573	0.000001
-4	-1	-1	3	4	0.002784	0.000035
-4	-1	-1	4	4	-0.001289	0.000000
-4	-1	-1	5	4	0.000014	0.000011
-4	-1	-1	6	4	-0.000001	0.000012
-4	-1	-1	7	4	0.000036	0.000004
-4	-1	-1	8	4	0.000000	0.000000
-4	-1	-1	1	5	0.000000	0.000000
-4	-1	-1	2	5	-0.000021	-0.000011
-4	-1	-1	3	5	0.000054	0.000000
-4	-1	-1	4	5	-0.000014	0.000011
-4	-1	-1	5	5	-0.005749	0.000000
-4	-1	-1	6	5	0.004723	-0.000015
-4	-1	-1	7	5	0.001986	0.000055
-4	-1	-1	8	5	0.004788	-0.000021
-4	-1	-1	1	6	-0.000021	-0.000011
-4	-1	-1	2	6	0.000000	0.000000
-4	-1	-1	3	6	-0.000034	-0.000004
-4	-1	-1	4	6	-0.000001	-0.000012
-4	-1	-1	5	6	-0.004723	-0.000015
-4	-1	-1	6	6	-0.001324	0.000000
-4	-1	-1	7	6	0.002745	-0.000035
-4	-1	-1	8	6	0.002573	0.000001
-4	-1	-1	1	7	0.000054	0.000000
-4	-1	-1	2	7	0.000034	0.000004
-4	-1	-1	3	7	0.000000	0.000000
-4	-1	-1	4	7	0.000036	-0.000004
-4	-1	-1	5	7	-0.001986	0.000055
-4	-1	-1	6	7	0.002745	0.000035
-4	-1	-1	7	7	0.008694	0.000000
-4	-1	-1	8	7	0.002784	0.000035
-4	-1	-1	1	8	-0.000014	0.000011
-4	-1	-1	2	8	0.000001	0.000012
-4	-1	-1	3	8	-0.000036	0.000004
-4	-1	-1	4	8	0.000000	0.000000
-4	-1	-1	5	8	-0.004788	-0.000021
-4	-1	-1	6	8	0.002573	-0.000001
-4	-1	-1	7	8	0.002784	-0.000035
-4	-1	-1	8	8	-0.001289	0.000000
-4	-1	0	1	1	-0.018026	0.000000
-4	-1	0	2	1	-0.000024	0.000000
-4	-1	0	3	1	0.008932	-0.000148
-4	-1	0	4	1	0.012672	0.000254
-4	-1	0	5	1	0.000000	0.000000
-4	-1	0	6	1	0.000154	0.000138
-4	-1	0	7	1	-0.000004	-0.000001
-4	-1	0	8	1	0.000000	-0.000004
-4	-1	0	1	2	0.000024	0.000000
-4	-1	0	2	2	-0.003332	0.000000
-4	-1	0	3	2	0.000081	0.000019
-4	-1	0	4	2	-0.000006	0.000008
-4	-1	0	5	2	0.000154	0.000138
-4	-1	0	6	2	0.000000	0.000000
-4	-1	0	7	2	-0.000102	-0.000064
-4	-1	0	8	2	0.000028	-0.000056
-4	-1	0	1	3	-0.008932	-0.000148
-4	-1	0	2	3	0.000081	-0.000019
-4	-1	0	3	3	0.025259	0.000000
-4	-1	0	4	3	0.007756	0.000577
-4	-1	0	5	3	-0.000004	-0.000001
-4	-1	0	6	3	0.000102	0.000064
-4	-1	0	7	3	0.000000	0.000000
-4	-1	0	8	3	0.000002	-0.000017
-4	-1	0	1	4	-0.012672	0.000254
-4	-1	0	2	4	-0.000006	-0.000008
-4	-1	0	3	4	0.007756	-0.000577
-4	-1	0	4	4	-0.001370	0.000000
-4	-1	0	5	4	0.000000	-0.000004
-4	-1	0	6	4	-0.000028	0.000056
-4	-1	0	7	4	-0.000002	0.000017
-4	-1	0	8	4	0.000000	0.000000
-4	-1	0	1	5	0.000000	0.000000
-4	-1	0	2	5	-0.000154	0.000138
-4	-1	0	3	5	0.000004	-0.000001
-4	-1	0	4	5	0.000000	-0.000004
-4	-1	0	5	5	-0.018026	0.000000
-4	-1	0	6	5	-0.000024	0.000000
-4	-1	0	7	5	0.008932	0.000148
-4	-1	0	8	5	0.012672	-0.000254
-4	-1	0	1	6	-0.000154	0.000138
-4	-1	0	2	6	0.000000	0.000000
-4	-1	0	3	6	0.000102	-0.000064
-4	-1	0	4	6	-0.000028	-0.000056
-4	-1	0	5	6	0.000024	0.000000
-4	-1	0	6	6	-0.003332	0.000000
-4	-1	0	7	6	0.000081	-0.000019
-4	-1	0	8	6	-0.000006	-0.000008
-4	-1	0	1	7	0.000004	-0.000001
-4	-1	0	2	7	-0.000102	0.000064
-4	-1	0	3	7	0.000000	0.000000
-4	-1	0	4	7	-0.000002	-0.000017
-4	-1	0	5	7	-0.008932	0.000148
-4	-1	0	6	7	0.000081	0.000019
-4	-1	0	7	7	0.025259	0.000000
-4	-1	0	8	7	0.007756	-0.000577
-4	-1	0	1	8	0.000000	-0.000004
-4	-1	0	2	8	0.000028	0.000056
-4	-1	0	3	8	0.000002	0.000017
-4	-1	0	4	8	0.000000	0.000000
-4	-1	0	5	8	-0.012672	-0.000254
-4	-1	0	6	8	-0.000006	0.000008
-4	-1	0	7	8	0.007756	0.000577
-4	-1	0	8	8	-0.001370	0.000000
-4	-1	1	1	1	-0.005708	0.000000
-4	-1	1	2	1	-0.004816	-0.000013
-4	-1	1	3	1	0.002276	-0.000045
-4	-1	1	4	1	0.004779	0.000014
-4	-1	1	5	1	0.000000	0.000000
-4	-1	1	6	1	0.000029	-0.000010
-4	-1	1	7	1	0.000046	0.000005
-4	-1	1	8	1	-0.000013	-0.000010
-4	-1	1	1	2	0.004816	-0.000013
-4	-1	1	2	2	-0.001235	0.000000
-4	-1	1	3	2	-0.002902	-0.000033
-4	-1	1	4	2	-0.002473	0.000001
-4	-1	1	5	2	0.000029	-0.000010
-4	-1	1	6	2	0.000000	0.000000
-4	-1	1	7	2	0.000027	-0.000026
-4	-1	1	8	2	0.000003	-0.000005
-4	-1	1	1	3	-0.002276	-0.000045
-4	-1	1	2	3	-0.002902	0.000033
-4	-1	1	3	3	0.008752	0.000000
-4	-1	1	4	3	0.002699	-0.000025
-4	-1	1	5	3	0.000046	0.000005
-4	-1	1	6	3	-0.000027	0.000026
-4	-1	1	7	3	0.000000	0.000000
-4	-1	1	8	3	0.000031	0.000029
-4	-1	1	1	4	-0.004779	0.000014
-4	-1	1	2	4	-0.002473	-0.000001
-4	-1	1	3	4	0.002699	0.000025
-4	-1	1	4	4	-0.001334	0.000000
-4	-1	1	5	4	-0.000013	-0.000010
-4	-1	1	6	4	-0.000003	0.000005
-4	-1	1	7	4	-0.000031	-0.000029
-4	-1	1	8	4	0.000000	0.000000
-4	-1	1	1	5	0.000000	0.000000
-4	-1	1	2	5	-0.000029	-0.000010
-4	-1	1	3	5	-0.000046	0.000005
-4	-1	1	4	5	0.000013	-0.000010
-4	-1	1	5	5	-0.005708	0.000000
-4	-1	1	6	5	-0.004816	0.000013
-4	-1	1	7	5	0.002276	0.000045
-4	-1	1	8	5	0.004779	-0.000014
-4	-1	1	1	6	-0.000029	-0.000010
-4	-1	1	2	6	0.000000	0.000000
-4	-1	1	3	6	-0.000027	-0.000026
-4	-1	1	4	6	-0.000003	-0.000005
-4	-1	1	5	6	0.004816	0.000013
-4	-1	1	6	6	-0.001235	0.000000
-4	-1	1	7	6	-0.002902	0.000033
-4	-1	1	8	6	-0.002473	-0.000001
-4	-1	1	1	7	-0.000046	0.000005
-4	-1	1	2	7	0.000027	0.000026
-4	-1	1	3	7	0.000000	0.000000
-4	-1	1	4	7	-0.000031	0.000029
-4	-1	1	5	7	-0.002276	0.000045
-4	-1	1	6	7	-0.002902	-0.000033
-4	-1	1	7	7	0.008752	0.000000
-4	-1	1	8	7	0.002699	0.000025
-4	-1	1	1	8	0.000013	-0.000010
-4	-1	1	2	8	0.000003	0.000005
-4	-1	1	3	8	0.000031	-0.000029
-4	-1	1	4	8	0.000000	0.000000
-4	-1	1	5	8	-0.004779	-0.000014
-4	-1	1	6	8	-0.002473	0.000001
-4	-1	1	7	8	0.002699	-0.000025
-4	-1	1	8	8	-0.001334	0.000000
-4	-1	2	1	1	-0.001492	0.000000
-4	-1	2	2	1	-0.002747	0.000009
-4	-1	2	3	1	0.000000	-0.000044
-4	-1	2	4	1	0.001149	-0.000001
-4	-1	2	5	1	0.000000	0.000000
-4	-1	2	6	1	-0.000011	0.000002
-4	-1	2	7	1	0.000039	-0.000004
-4	-1	2	8	1	-0.000017	0.000026
-4	-1	2	1	2	0.002747	0.000009
-4	-1	2	2	2	0.000999	0.000000
-4	-1	2	3	2	-0.001536	0.000026
-4	-1	2	4	2	-0.001781	-0.000060
-4	-1	2	5	2	-0.000011	0.000002
-4	-1	2	6	2	0.000000	0.000000
-4	-1	2	7	2	0.000048	-0.000002
-4	-1	2	8	2	-0.000001	-0.000012
-4	-1	2	1	3	0.000000	-0.000044
-4	-1	2	2	3	-0.001536	-0.000026
-4	-1	2	3	3	0.000998	0.000000
-4	-1	2	4	3	0.000414	-0.000031
-4	-1	2	5	3	0.000039	-0.000004
-4	-1	2	6	3	-0.000048	0.000002
-4	-1	2	7	3	0.000000	0.000000
-4	-1	2	8	3	0.000000	0.000002
-4	-1	2	1	4	-0.001149	-0.000001
-4	-1	2	2	4	-0.001781	0.000060
-4	-1	2	3	4	0.000414	0.000031
-4	-1	2	4	4	-0.000312	0.000000
-4	-1	2	5	4	-0.000017	0.000026
-4	-1	2	6	4	0.000001	0.000012
-4	-1	2	7	4	0.000000	-0.000002
-4	-1	2	8	4	0.000000	0.000000
-4	-1	2	1	5	0.000000	0.000000
-4	-1	2	2	5	0.000011	0.000002
-4	-1	2	3	5	-0.000039	-0.000004
-4	-1	2	4	5	0.000017	0.000026
-4	-1	2	5	5	-0.001492	0.000000
-4	-1	2	6	5	-0.002747	-0.000009
-4	-1	2	7	5	0.000000	0.000044
-4	-1	2	8	5	0.001149	0.000001
-4	-1	2	1	6	0.000011	0.000002
-4	-1	2	2	6	0.000000	0.000000
-4	-1	2	3	6	-0.000048	-0.000002
-4	-1	2	4	6	0.000001	-0.000012
-4	-1	2	5	6	0.002747	-0.000009
-4	-1	2	6	6	0.000999	0.000000
-4	-1	2	7	6	-0.001536	-0.000026
-4	-1	2	8	6	-0.001781	0.000060
-4	-1	2	1	7	-0.000039	-0.000004
-4	-1	2	2	7	0.000048	0.000002
-4	-1	2	3	7	0.000000	0.000000
-4	-1	2	4	7	0.000000	0.000002
-4	-1	2	5	7	0.000000	0.000044
-4	-1	2	6	7	-0.001536	0.000026
-4	-1	2	7	7	0.000998	0.000000
-4	-1	2	8	7	0.000414	0.000031
-4	-1	2	1	8	0.000017	0.000026
-4	-1	2	2	8	-0.000001	0.000012
-4	-1	2	3	8	0.000000	-0.000002
-4	-1	2	4	8	0.000000	0.000000
-4	-1	2	5	8	-0.001149	0.000001
-4	-1	2	6	8	-0.001781	-0.000060
-4	-1	2	7	8	0.000414	-0.000031
-4	-1	2	8	8	-0.000312	0.000000
-4	-1	3	1	1	-0.001819	0.000000
-4	-1	3	2	1	-0.000921	-0.000014
-4	-1	3	3	1	0.000389	-0.000035
-4	-1	3	4	1	0.001028	-0.000001
-4	-1	3	5	1	0.000000	0.000000
-4	-1	3	6	1	0.000017	0.000041
-4	-1	3	7	1	0.000001	0.000010
-4	-1	3	8	1	-0.000005	0.000030
-4	-1	3	1	2	0.000921	-0.000014
-4	-1	3	2	2	0.001036	0.000000
-4	-1	3	3	2	-0.000537	-0.000020
-4	-1	3	4	2	-0.000509	-0.000025
-4	-1	3	5	2	0.000017	0.000041
-4	-1	3	6	2	0.000000	0.000000
-4	-1	3	7	2	0.000034	0.000011
-4	-1	3	8	2	0.000026	0.000003
-4	-1	3	1	3	-0.000389	-0.000035
-4	-1	3	2	3	-0.000537	0.000020
-4	-1	3	3	3	0.000912	0.000000
-4	-1	3	4	3	0.000200	0.000016
-4	-1	3	5	3	0.000001	0.000010
-4	-1	3	6	3	-0.000034	-0.000011
-4	-1	3	7	3	0.000000	0.000000
-4	-1	3	8	3	0.000015	0.000028
-4	-1	3	1	4	-0.001028	-0.000001
-4	-1	3	2	4	-0.000509	0.000025
-4	-1	3	3	4	0.000200	-0.000016
-4	-1	3	4	4	-0.000253	0.000000
-4	-1	3	5	4	-0.000005	0.000030
-4	-1	3	6	4	-0.000026	-0.000003
-4	-1	3	7	4	-0.000015	-0.000028
-4	-1	3	8	4	0.000000	0.000000
-4	-1	3	1	5	0.000000	0.000000
-4	-1	3	2	5	-0.000017	0.000041
-4	-1	3	3	5	-0.000001	0.000010
-4	-1	3	4	5	0.000005	0.000030
-4	-1	3	5	5	-0.001819	0.000000
-4	-1	3	6	5	-0.000921	0.000014
-4	-1	3	7	5	0.000389	0.000035
-4	-1	3	8	5	0.001028	0.000001
-4	-1	3	1	6	-0.000017	0.000041
-4	-1	3	2	6	0.000000	0.000000
-4	-1	3	3	6	-0.000034	0.000011
-4	-1	3	4	6	-0.000026	0.000003
-4	-1	3	5	6	0.000921	0.000014
-4	-1	3	6	6	0.001036	0.000000
-4	-1	3	7	6	-0.000537	0.000020
-4	-1	3	8	6	-0.000509	0.000025
-4	-1	3	1	7	-0.000001	0.000010
-4	-1	3	2	7	0.000034	-0.000011
-4	-1	3	3	7	0.000000	0.000000
-4	-1	3	4	7	-0.000015	0.000028
-4	-1	3	5	7	-0.000389	0.000035
-4	-1	3	6	7	-0.000537	-0.000020
-4	-1	3	7	7	0.000912	0.000000
-4	-1	3	8	7	0.000200	-0.000016
-4	-1	3	1	8	0.000005	0.000030
-4	-1	3	2	8	0.000026	-0.000003
-4	-1	3	3	8	0.000015	-0.000028
-4	-1	3	4	8	0.000000	0.000000
-4	-1	3	5	8	-0.001028	0.000001
-4	-1	3	6	8	-0.000509	-0.000025
-4	-1	3	7	8	0.000200	0.000016
-4	-1	3	8	8	-0.000253	0.000000
-4	-1	4	1	1	-0.001532	0.000000
-4	-1	4	2	1	-0.000382	-0.000005
-4	-1	4	3	1	0.000367	-0.000031
-4	-1	4	4	1	0.000575	0.000012
-4	-1	4	5	1	0.000000	0.000000
-4	-1	4	6	1	0.000030	0.000031
-4	-1	4	7	1	0.000032	0.000006
-4	-1	4	8	1	-0.000001	0.000007
-4	-1	4	1	2	0.000382	-0.000005
-4	-1	4	2	2	0.000936	0.000000
-4	-1	4	3	2	-0.000340	-0.000004
-4	-1	4	4	2	-0.000192	-0.000003
-4	-1	4	5	2	0.000030	0.000031
-4	-1	4	6	2	0.000000	0.000000
-4	-1	4	7	2	0.000011	0.000019
-4	-1	4	8	2	0.000001	-0.000002
-4	-1	4	1	3	-0.000367	-0.000031
-4	-1	4	2	3	-0.000340	0.000004
-4	-1	4	3	3	0.000913	0.000000
-4	-1	4	4	3	0.000168	-0.000009
-4	-1	4	5	3	0.000032	0.000006
-4	-1	4	6	3	-0.000011	-0.000019
-4	-1	4	7	3	0.000000	0.000000
-4	-1	4	8	3	0.000002	0.000004
-4	-1	4	1	4	-0.000575	0.000012
-4	-1	4	2	4	-0.000192	0.000003
-4	-1	4	3	4	0.000168	0.000009
-4	-1	4	4	4	-0.000189	0.000000
-4	-1	4	5	4	-0.000001	0.000007
-4	-1	4	6	4	-0.000001	0.000002
-4	-1	4	7	4	-0.000002	-0.000004
-4	-1	4	8	4	0.000000	0.000000
-4	-1	4	1	5	0.000000	0.000000
-4	-1	4	2	5	-0.000030	0.000031
-4	-1	4	3	5	-0.000032	0.000006
-4	-1	4	4	5	0.000001	0.000007
-4	-1	4	5	5	-0.001532	0.000000
-4	-1	4	6	5	-0.000382	0.000005
-4	-1	4	7	5	0.000367	0.000031
-4	-1	4	8	5	0.000575	-0.000012
-4	-1	4	1	6	-0.000030	0.000031
-4	-1	4	2	6	0.000000	0.000000
-4	-1	4	3	6	-0.000011	0.000019
-4	-1	4	4	6	-0.000001	-0.000002
-4	-1	4	5	6	0.000382	0.000005
-4	-1	4	6	6	0.000936	0.000000
-4	-1	4	7	6	-0.000340	0.000004
-4	-1	4	8	6	-0.000192	0.000003
-4	-1	4	1	7	-0.000032	0.000006
-4	-1	4	2	7	0.000011	-0.000019
-4	-1	4	3	7	0.000000	0.000000
-4	-1	4	4	7	-0.000002	0.000004
-4	-1	4	5	7	-0.000367	0.000031
-4	-1	4	6	7	-0.000340	-0.000004
-4	-1	4	7	7	0.000913	0.000000
-4	-1	4	8	7	0.000168	0.000009
-4	-1	4	1	8	0.000001	0.000007
-4	-1	4	2	8	0.000001	0.000002
-4	-1	4	3	8	0.000002	-0.000004
-4	-1	4	4	8	0.000000	0.000000
-4	-1	4	5	8	-0.000575	-0.000012
-4	-1	4	6	8	-0.000192	-0.000003
-4	-1	4	7	8	0.000168	-0.000009
-4	-1	4	8	8	-0.000189	0.000000
-4	0	-4	1	1	-0.002991	0.000000
-4	0	-4	2	1	0.000595	0.000001
-4	0	-4	3	1	0.000603	0.000003
-4	0	-4	4	1	0.000042	0.000002
-4	0	-4	5	1	0.000000	0.000000
-4	0	-4	6	1	-0.000011	-0.000003
-4	0	-4	7	1	0.000012	-0.000001
-4	0	-4	8	1	0.000000	-0.000001
-4	0	-4	1	2	-0.000595	0.000001
-4	0	-4	2	2	0.001395	0.000000
-4	0	-4	3	2	-0.000088	-0.000007
-4	0	-4	4	2	0.000024	-0.000030
-4	0	-4	5	2	-0.000011	-0.000003
-4	0	-4	6	2	0.000000	0.000000
-4	0	-4	7	2	-0.000126	-0.000006
-4	0	-4	8	2	-0.000001	0.000023
-4	0	-4	1	3	-0.000603	0.000003
-4	0	-4	2	3	-0.000088	0.000007
-4	0	-4	3	3	0.001391	0.000000
-4	0	-4	4	3	-0.000021	-0.000024
-4	0	-4	5	3	0.000012	-0.000001
-4	0	-4	6	3	0.000126	0.000006
-4	0	-4	7	3	0.000000	0.000000
-4	0	-4	8	3	0.000003	0.000031
-4	0	-4	1	4	-0.000042	0.000002
-4	0	-4	2	4	0.000024	0.000030
-4	0	-4	3	4	-0.000021	0.000024
-4	0	-4	4	4	-0.000450	0.000000
-4	0	-4	5	4	0.000000	-0.000001
-4	0	-4	6	4	0.000001	-0.000023
-4	0	-4	7	4	-0.000003	-0.000031
-4	0	-4	8	4	0.000000	0.000000
-4	0	-4	1	5	0.000000	0.000000
-4	0	-4	2	5	0.000011	-0.000003
-4	0	-4	3	5	-0.000012	-0.000001
-4	0	-4	4	5	0.000000	-0.000001
-4	0	-4	5	5	-0.002991	0.000000
-4	0	-4	6	5	0.000595	-0.000001
-4	0	-4	7	5	0.000603	-0.000003
-4	0	-4	8	5	0.000042	-0.000002
-4	0	-4	1	6	0.000011	-0.000003
-4	0	-4	2	6	0.000000	0.000000
-4	0	-4	3	6	0.000126	-0.000006
-4	0	-4	4	6	0.000001	0.000023
-4	0	-4	5	6	-0.000595	-0.000001
-4	0	-4	6	6	0.001395	0.000000
-4	0	-4	7	6	-0.000088	0.000007
-4	0	-4	8	6	0.000024	0.000030
-4	0	-4	1	7	-0.000012	-0.000001
-4	0	-4	2	7	-0.000126	0.000006
-4	0	-4	3	7	0.000000	0.000000
-4	0	-4	4	7	-0.000003	0.000031
-4	0	-4	5	7	-0.000603	-0.000003
-4	0	-4	6	7	-0.000088	-0.000007
-4	0	-4	7	7	0.001391	0.000000
-4	0	-4	8	7	-0.000021	0.000024
-4	0	-4	1	8	0.000000	-0.000001
-4	0	-4	2	8	-0.000001	-0.000023
-4	0	-4	3	8	0.000003	-0.000031
-4	0	-4	4	8	0.000000	0.000000
-4	0	-4	5	8	-0.000042	-0.000002
-4	0	-4	6	8	0.000024	-0.000030
-4	0	-4	7	8	-0.000021	-0.000024
-4	0	-4	8	8	-0.000450	0.000000
-4	0	-3	1	1	-0.003735	0.000000
-4	0	-3	2	1	0.002221	0.000001
-4	0	-3	3	1	0.001004	0.000003
-4	0	-3	4	1	0.000039	0.000000
-4	0	-3	5	1	0.000000	0.000000
-4	0	-3	6	1	0.000050	-0.000002
-4	0	-3	7	1	-0.000036	0.000001
-4	0	-3	8	1	0.000003	-0.000066
-4	0	-3	1	2	-0.002221	0.000001
-4	0	-3	2	2	0.002085	0.000000
-4	0	-3	3	2	0.000859	0.000004
-4	0	-3	4	2	0.000057	0.000007
-4	0	-3	5	2	0.000050	-0.000002
-4	0	-3	6	2	0.000000	0.000000
-4	0	-3	7	2	-0.000157	-0.000009
-4	0	-3	8	2	-0.000003	-0.000009
-4	0	-3	1	3	-0.001004	0.000003
-4	0	-3	2	3	0.000859	-0.000004
-4	0	-3	3	3	0.003473	0.000000
-4	0	-3	4	3	0.000021	0.000062
-4	0	-3	5	3	-0.000036	0.000001
-4	0	-3	6	3	0.000157	0.000009
-4	0	-3	7	3	0.000000	0.000000
-4	0	-3	8	3	-0.000006	-0.000053
-4	0	-3	1	4	-0.000039	0.000000
-4	0	-3	2	4	0.000057	-0.000007
-4	0	-3	3	4	0.000021	-0.000062
-4	0	-3	4	4	-0.000665	0.000000
-4	0	-3	5	4	0.000003	-0.000066
-4	0	-3	6	4	0.000003	0.000009
-4	0	-3	7	4	0.000006	0.000053
-4	0	-3	8	4	0.000000	0.000000
-4	0	-3	1	5	0.000000	0.000000
-4	0	-3	2	5	-0.000050	-0.000002
-4	0	-3	3	5	0.000036	0.000001
-4	0	-3	4	5	-0.000003	-0.000066
-4	0	-3	5	5	-0.003735	0.000000
-4	0	-3	6	5	0.002221	-0.000001
-4	0	-3	7	5	0.001004	-0.000003
-4	0	-3	8	5	0.000039	0.000000
-4	0	-3	1	6	-0.000050	-0.000002
-4	0	-3	2	6	0.000000	0.000000
-4	0	-3	3	6	0.000157	-0.000009
-4	0	-3	4	6	0.000003	-0.000009
-4	0	-3	5	6	-0.002221	-0.000001
-4	0	-3	6	6	0.002085	0.000000
-4	0	-3	7	6	0.000859	-0.000004
-4	0	-3	8	6	0.000057	-0.000007
-4	0	-3	1	7	0.000036	0.000001
-4	0	-3	2	7	-0.000157	0.000009
-4	0	-3	3	7	0.000000	0.000000
-4	0	-3	4	7	0.000006	-0.000053
-4	0	-3	5	7	-0.001004	-0.000003
-4	0	-3	6	7	0.000859	0.000004
-4	0	-3	7	7	0.003473	0.000000
-4	0	-3	8	7	0.000021	-0.000062
-4	0	-3	1	8	-0.000003	-0.000066
-4	0	-3	2	8	-0.000003	0.000009
-4	0	-3	3	8	-0.000006	0.000053
-4	0	-3	4	8	0.000000	0.000000
-4	0	-3	5	8	-0.000039	0.000000
-4	0	-3	6	8	0.000057	0.000007
-4	0	-3	7	8	0.000021	0.000062
-4	0	-3	8	8	-0.000665	0.000000
-4	0	-2	1	1	-0.004856	0.000000
-4	0	-2	2	1	0.006588	0.000003
-4	0	-2	3	1	0.001082	0.000003
-4	0	-2	4	1	-0.000052	0.000001
-4	0	-2	5	1	0.000000	0.000000
-4	0	-2	6	1	0.000023	-0.000006
-4	0	-2	7	1	-0.000180	-0.000001
-4	0	-2	8	1	-0.000001	-0.000040
-4	0	-2	1	2	-0.006588	0.000003
-4	0	-2	2	2	0.002117	0.000000
-4	0	-2	3	2	0.003249	0.000005
-4	0	-2	4	2	0.000061	0.000077
-4	0	-2	5	2	0.000023	-0.000006
-4	0	-2	6	2	0.000000	0.000000
-4	0	-2	7	2	-0.000125	-0.000008
-4	0	-2	8	2	-0.000001	-0.000034
[...]
4	3	3	4	3	0.000117	0.000023
4	3	3	5	3	-0.000008	0.000000
4	3	3	6	3	0.000023	-0.000005
4	3	3	7	3	0.000000	0.000000
4	3	3	8	3	-0.000007	0.000005
4	3	3	1	4	0.000264	-0.000018
4	3	3	2	4	0.000065	-0.000022
4	3	3	3	4	0.000117	-0.000023
4	3	3	4	4	0.000271	0.000000
4	3	3	5	4	-0.000003	-0.000004
4	3	3	6	4	0.000022	-0.000005
4	3	3	7	4	0.000007	-0.000005
4	3	3	8	4	0.000000	0.000000
4	3	3	1	5	0.000000	0.000000
4	3	3	2	5	0.000018	0.000004
4	3	3	3	5	0.000008	0.000000
4	3	3	4	5	0.000003	-0.000004
4	3	3	5	5	-0.000735	0.000000
4	3	3	6	5	-0.000262	0.000003
4	3	3	7	5	-0.000126	0.000008
4	3	3	8	5	-0.000264	0.000018
4	3	3	1	6	0.000018	0.000004
4	3	3	2	6	0.000000	0.000000
4	3	3	3	6	0.000023	0.000005
4	3	3	4	6	0.000022	0.000005
4	3	3	5	6	0.000262	0.000003
4	3	3	6	6	0.000274	0.000000
4	3	3	7	6	0.000116	-0.000006
4	3	3	8	6	0.000065	-0.000022
4	3	3	1	7	0.000008	0.000000
4	3	3	2	7	-0.000023	-0.000005
4	3	3	3	7	0.000000	0.000000
4	3	3	4	7	0.000007	0.000005
4	3	3	5	7	0.000126	0.000008
4	3	3	6	7	0.000116	0.000006
4	3	3	7	7	0.000221	0.000000
4	3	3	8	7	0.000117	-0.000023
4	3	3	1	8	0.000003	-0.000004
4	3	3	2	8	-0.000022	-0.000005
4	3	3	3	8	-0.000007	-0.000005
4	3	3	4	8	0.000000	0.000000
4	3	3	5	8	0.000264	0.000018
4	3	3	6	8	0.000065	0.000022
4	3	3	7	8	0.000117	0.000023
4	3	3	8	8	0.000271	0.000000
4	3	4	1	1	-0.000569	0.000000
4	3	4	2	1	-0.000022	0.000006
4	3	4	3	1	-0.000025	0.000008
4	3	4	4	1	-0.000235	0.000004
4	3	4	5	1	0.000000	0.000000
4	3	4	6	1	0.000001	-0.000007
4	3	4	7	1	-0.000001	-0.000006
4	3	4	8	1	0.000000	-0.000004
4	3	4	1	2	0.000022	0.000006
4	3	4	2	2	0.000202	0.000000
4	3	4	3	2	-0.000093	0.000002
4	3	4	4	2	-0.000015	-0.000002
4	3	4	5	2	0.000001	-0.000007
4	3	4	6	2	0.000000	0.000000
4	3	4	7	2	-0.000055	0.000003
4	3	4	8	2	-0.000009	0.000008
4	3	4	1	3	0.000025	0.000008
4	3	4	2	3	-0.000093	-0.000002
4	3	4	3	3	0.000199	0.000000
4	3	4	4	3	-0.000012	-0.000008
4	3	4	5	3	-0.000001	-0.000006
4	3	4	6	3	0.000055	-0.000003
4	3	4	7	3	0.000000	0.000000
4	3	4	8	3	0.000009	0.000002
4	3	4	1	4	0.000235	0.000004
4	3	4	2	4	-0.000015	0.000002
4	3	4	3	4	-0.000012	0.000008
4	3	4	4	4	0.000196	0.000000
4	3	4	5	4	0.000000	-0.000004
4	3	4	6	4	0.000009	-0.000008
4	3	4	7	4	-0.000009	-0.000002
4	3	4	8	4	0.000000	0.000000
4	3	4	1	5	0.000000	0.000000
4	3	4	2	5	-0.000001	-0.000007
4	3	4	3	5	0.000001	-0.000006
4	3	4	4	5	0.000000	-0.000004
4	3	4	5	5	-0.000569	0.000000
4	3	4	6	5	-0.000022	-0.000006
4	3	4	7	5	-0.000025	-0.000008
4	3	4	8	5	-0.000235	-0.000004
4	3	4	1	6	-0.000001	-0.000007
4	3	4	2	6	0.000000	0.000000
4	3	4	3	6	0.000055	0.000003
4	3	4	4	6	0.000009	0.000008
4	3	4	5	6	0.000022	-0.000006
4	3	4	6	6	0.000202	0.000000
4	3	4	7	6	-0.000093	-0.000002
4	3	4	8	6	-0.000015	0.000002
4	3	4	1	7	0.000001	-0.000006
4	3	4	2	7	-0.000055	-0.000003
4	3	4	3	7	0.000000	0.000000
4	3	4	4	7	-0.000009	0.000002
4	3	4	5	7	0.000025	-0.000008
4	3	4	6	7	-0.000093	0.000002
4	3	4	7	7	0.000199	0.000000
4	3	4	8	7	-0.000012	0.000008
4	3	4	1	8	0.000000	-0.000004
4	3	4	2	8	-0.000009	-0.000008
4	3	4	3	8	0.000009	-0.000002
4	3	4	4	8	0.000000	0.000000
4	3	4	5	8	0.000235	-0.000004
4	3	4	6	8	-0.000015	-0.000002
4	3	4	7	8	-0.000012	-0.000008
4	3	4	8	8	0.000196	0.000000
4	4	-4	1	1	-0.000540	0.000000
4	4	-4	2	1	0.000092	0.000000
4	4	-4	3	1	-0.000110	0.000018
4	4	-4	4	1	-0.000110	-0.000018
4	4	-4	5	1	0.000000	0.000000
4	4	-4	6	1	-0.000009	-0.000009
4	4	-4	7	1	-0.000017	-0.000002
4	4	-4	8	1	-0.000002	-0.000017
4	4	-4	1	2	-0.000092	0.000000
4	4	-4	2	2	0.000168	0.000000
4	4	-4	3	2	-0.000088	0.000015
4	4	-4	4	2	-0.000087	-0.000015
4	4	-4	5	2	-0.000009	-0.000009
4	4	-4	6	2	0.000000	0.000000
4	4	-4	7	2	0.000028	-0.000014
4	4	-4	8	2	-0.000014	0.000028
4	4	-4	1	3	0.000110	0.000018
4	4	-4	2	3	-0.000088	-0.000015
4	4	-4	3	3	0.000159	0.000000
4	4	-4	4	3	0.000087	-0.000026
4	4	-4	5	3	-0.000017	-0.000002
4	4	-4	6	3	-0.000028	0.000014
4	4	-4	7	3	0.000000	0.000000
4	4	-4	8	3	-0.000013	0.000014
4	4	-4	1	4	0.000110	-0.000018
4	4	-4	2	4	-0.000087	0.000015
4	4	-4	3	4	0.000087	0.000026
4	4	-4	4	4	0.000157	0.000000
4	4	-4	5	4	-0.000002	-0.000017
4	4	-4	6	4	0.000014	-0.000028
4	4	-4	7	4	0.000013	-0.000014
4	4	-4	8	4	0.000000	0.000000
4	4	-4	1	5	0.000000	0.000000
4	4	-4	2	5	0.000009	-0.000009
4	4	-4	3	5	0.000017	-0.000002
4	4	-4	4	5	0.000002	-0.000017
4	4	-4	5	5	-0.000540	0.000000
4	4	-4	6	5	0.000092	0.000000
4	4	-4	7	5	-0.000110	-0.000018
4	4	-4	8	5	-0.000110	0.000018
4	4	-4	1	6	0.000009	-0.000009
4	4	-4	2	6	0.000000	0.000000
4	4	-4	3	6	-0.000028	-0.000014
4	4	-4	4	6	0.000014	0.000028
4	4	-4	5	6	-0.000092	0.000000
4	4	-4	6	6	0.000168	0.000000
4	4	-4	7	6	-0.000088	-0.000015
4	4	-4	8	6	-0.000087	0.000015
4	4	-4	1	7	0.000017	-0.000002
4	4	-4	2	7	0.000028	0.000014
4	4	-4	3	7	0.000000	0.000000
4	4	-4	4	7	0.000013	0.000014
4	4	-4	5	7	0.000110	-0.000018
4	4	-4	6	7	-0.000088	0.000015
4	4	-4	7	7	0.000159	0.000000
4	4	-4	8	7	0.000087	0.000026
4	4	-4	1	8	0.000002	-0.000017
4	4	-4	2	8	-0.000014	-0.000028
4	4	-4	3	8	-0.000013	-0.000014
4	4	-4	4	8	0.000000	0.000000
4	4	-4	5	8	0.000110	0.000018
4	4	-4	6	8	-0.000087	-0.000015
4	4	-4	7	8	0.000087	-0.000026
4	4	-4	8	8	0.000157	0.000000
4	4	-3	1	1	-0.000548	0.000000
4	4	-3	2	1	0.000180	0.000000
4	4	-3	3	1	-0.000013	-0.000004
4	4	-3	4	1	-0.000013	0.000004
4	4	-3	5	1	0.000000	0.000000
4	4	-3	6	1	0.000004	0.000004
4	4	-3	7	1	-0.000006	-0.000007
4	4	-3	8	1	-0.000007	-0.000006
4	4	-3	1	2	-0.000180	0.000000
4	4	-3	2	2	0.000201	0.000000
4	4	-3	3	2	-0.000024	0.000011
4	4	-3	4	2	-0.000024	-0.000011
4	4	-3	5	2	0.000004	0.000004
4	4	-3	6	2	0.000000	0.000000
4	4	-3	7	2	0.000005	0.000002
4	4	-3	8	2	0.000002	0.000005
4	4	-3	1	3	0.000013	-0.000004
4	4	-3	2	3	-0.000024	-0.000011
4	4	-3	3	3	0.000167	0.000000
4	4	-3	4	3	-0.000086	0.000042
4	4	-3	5	3	-0.000006	-0.000007
4	4	-3	6	3	-0.000005	-0.000002
4	4	-3	7	3	0.000000	0.000000
4	4	-3	8	3	-0.000004	0.000004
4	4	-3	1	4	0.000013	0.000004
4	4	-3	2	4	-0.000024	0.000011
4	4	-3	3	4	-0.000086	-0.000042
4	4	-3	4	4	0.000169	0.000000
4	4	-3	5	4	-0.000007	-0.000006
4	4	-3	6	4	-0.000002	-0.000005
4	4	-3	7	4	0.000004	-0.000004
4	4	-3	8	4	0.000000	0.000000
4	4	-3	1	5	0.000000	0.000000
4	4	-3	2	5	-0.000004	0.000004
4	4	-3	3	5	0.000006	-0.000007
4	4	-3	4	5	0.000007	-0.000006
4	4	-3	5	5	-0.000548	0.000000
4	4	-3	6	5	0.000180	0.000000
4	4	-3	7	5	-0.000013	0.000004
4	4	-3	8	5	-0.000013	-0.000004
4	4	-3	1	6	-0.000004	0.000004
4	4	-3	2	6	0.000000	0.000000
4	4	-3	3	6	-0.000005	0.000002
4	4	-3	4	6	-0.000002	0.000005
4	4	-3	5	6	-0.000180	0.000000
4	4	-3	6	6	0.000201	0.000000
4	4	-3	7	6	-0.000024	-0.000011
4	4	-3	8	6	-0.000024	0.000011
4	4	-3	1	7	0.000006	-0.000007
4	4	-3	2	7	0.000005	-0.000002
4	4	-3	3	7	0.000000	0.000000
4	4	-3	4	7	0.000004	0.000004
4	4	-3	5	7	0.000013	0.000004
4	4	-3	6	7	-0.000024	0.000011
4	4	-3	7	7	0.000167	0.000000
4	4	-3	8	7	-0.000086	-0.000042
4	4	-3	1	8	0.000007	-0.000006
4	4	-3	2	8	0.000002	-0.000005
4	4	-3	3	8	-0.000004	-0.000004
4	4	-3	4	8	0.000000	0.000000
4	4	-3	5	8	0.000013	-0.000004
4	4	-3	6	8	-0.000024	-0.000011
4	4	-3	7	8	-0.000086	0.000042
4	4	-3	8	8	0.000169	0.000000
4	4	-2	1	1	-0.000682	0.000000
4	4	-2	2	1	0.000379	0.000000
4	4	-2	3	1	-0.000042	0.000015
4	4	-2	4	1	-0.000041	-0.000015
4	4	-2	5	1	0.000000	0.000000
4	4	-2	6	1	0.000008	0.000008
4	4	-2	7	1	-0.000021	0.000013
4	4	-2	8	1	0.000014	-0.000021
4	4	-2	1	2	-0.000379	0.000000
4	4	-2	2	2	0.000084	0.000000
4	4	-2	3	2	-0.000100	0.000004
4	4	-2	4	2	-0.000099	-0.000003
4	4	-2	5	2	0.000008	0.000008
4	4	-2	6	2	0.000000	0.000000
4	4	-2	7	2	-0.000011	-0.000009
4	4	-2	8	2	-0.000009	-0.000011
4	4	-2	1	3	0.000042	0.000015
4	4	-2	2	3	-0.000100	-0.000004
4	4	-2	3	3	0.000332	0.000000
4	4	-2	4	3	-0.000008	0.000013
4	4	-2	5	3	-0.000021	0.000013
4	4	-2	6	3	0.000011	0.000009
4	4	-2	7	3	0.000000	0.000000
4	4	-2	8	3	0.000017	-0.000018
4	4	-2	1	4	0.000041	-0.000015
4	4	-2	2	4	-0.000099	0.000003
4	4	-2	3	4	-0.000008	-0.000013
4	4	-2	4	4	0.000332	0.000000
4	4	-2	5	4	0.000014	-0.000021
4	4	-2	6	4	0.000009	0.000011
4	4	-2	7	4	-0.000017	0.000018
4	4	-2	8	4	0.000000	0.000000
4	4	-2	1	5	0.000000	0.000000
4	4	-2	2	5	-0.000008	0.000008
4	4	-2	3	5	0.000021	0.000013
4	4	-2	4	5	-0.000014	-0.000021
4	4	-2	5	5	-0.000682	0.000000
4	4	-2	6	5	0.000379	0.000000
4	4	-2	7	5	-0.000042	-0.000015
4	4	-2	8	5	-0.000041	0.000015
4	4	-2	1	6	-0.000008	0.000008
4	4	-2	2	6	0.000000	0.000000
4	4	-2	3	6	0.000011	-0.000009
4	4	-2	4	6	0.000009	-0.000011
4	4	-2	5	6	-0.000379	0.000000
4	4	-2	6	6	0.000084	0.000000
4	4	-2	7	6	-0.000100	-0.000004
4	4	-2	8	6	-0.000099	0.000003
4	4	-2	1	7	0.000021	0.000013
4	4	-2	2	7	-0.000011	0.000009
4	4	-2	3	7	0.000000	0.000000
4	4	-2	4	7	-0.000017	-0.000018
4	4	-2	5	7	0.000042	-0.000015
4	4	-2	6	7	-0.000100	0.000004
4	4	-2	7	7	0.000332	0.000000
4	4	-2	8	7	-0.000008	-0.000013
4	4	-2	1	8	-0.000014	-0.000021
4	4	-2	2	8	-0.000009	0.000011
4	4	-2	3	8	0.000017	0.000018
4	4	-2	4	8	0.000000	0.000000
4	4	-2	5	8	0.000041	0.000015
4	4	-2	6	8	-0.000099	-0.000003
4	4	-2	7	8	-0.000008	0.000013
4	4	-2	8	8	0.000332	0.000000
4	4	-1	1	1	-0.001580	0.000000
4	4	-1	2	1	0.000572	0.000000
4	4	-1	3	1	-0.000308	0.000028
4	4	-1	4	1	-0.000303	-0.000029
4	4	-1	5	1	0.000000	0.000000
4	4	-1	6	1	-0.000002	-0.000002
4	4	-1	7	1	-0.000029	0.000002
4	4	-1	8	1	0.000002	-0.000029
4	4	-1	1	2	-0.000572	0.000000
4	4	-1	2	2	-0.000256	0.000000
4	4	-1	3	2	-0.000125	-0.000003
4	4	-1	4	2	-0.000124	0.000003
4	4	-1	5	2	-0.000002	-0.000002
4	4	-1	6	2	0.000000	0.000000
4	4	-1	7	2	0.000021	-0.000003
4	4	-1	8	2	-0.000003	0.000020
4	4	-1	1	3	0.000308	0.000028
4	4	-1	2	3	-0.000125	0.000003
4	4	-1	3	3	0.000758	0.000000
4	4	-1	4	3	0.000232	-0.000027
4	4	-1	5	3	-0.000029	0.000002
4	4	-1	6	3	-0.000021	0.000003
4	4	-1	7	3	0.000000	0.000000
4	4	-1	8	3	0.000006	-0.000006
4	4	-1	1	4	0.000303	-0.000029
4	4	-1	2	4	-0.000124	-0.000003
4	4	-1	3	4	0.000232	0.000027
4	4	-1	4	4	0.000753	0.000000
4	4	-1	5	4	0.000002	-0.000029
4	4	-1	6	4	0.000003	-0.000020
4	4	-1	7	4	-0.000006	0.000006
4	4	-1	8	4	0.000000	0.000000
4	4	-1	1	5	0.000000	0.000000
4	4	-1	2	5	0.000002	-0.000002
4	4	-1	3	5	0.000029	0.000002
4	4	-1	4	5	-0.000002	-0.000029
4	4	-1	5	5	-0.001580	0.000000
4	4	-1	6	5	0.000572	0.000000
4	4	-1	7	5	-0.000308	-0.000028
4	4	-1	8	5	-0.000303	0.000029
4	4	-1	1	6	0.000002	-0.000002
4	4	-1	2	6	0.000000	0.000000
4	4	-1	3	6	-0.000021	-0.000003
4	4	-1	4	6	0.000003	0.000020
4	4	-1	5	6	-0.000572	0.000000
4	4	-1	6	6	-0.000256	0.000000
4	4	-1	7	6	-0.000125	0.000003
4	4	-1	8	6	-0.000124	-0.000003
4	4	-1	1	7	0.000029	0.000002
4	4	-1	2	7	0.000021	0.000003
4	4	-1	3	7	0.000000	0.000000
4	4	-1	4	7	-0.000006	-0.000006
4	4	-1	5	7	0.000308	-0.000028
4	4	-1	6	7	-0.000125	-0.000003
4	4	-1	7	7	0.000758	0.000000
4	4	-1	8	7	0.000232	0.000027
4	4	-1	1	8	-0.000002	-0.000029
4	4	-1	2	8	-0.000003	-0.000020
4	4	-1	3	8	0.000006	0.000006
4	4	-1	4	8	0.000000	0.000000
4	4	-1	5	8	0.000303	0.000029
4	4	-1	6	8	-0.000124	0.000003
4	4	-1	7	8	0.000232	-0.000027
4	4	-1	8	8	0.000753	0.000000
4	4	0	1	1	-0.002993	0.000000
4	4	0	2	1	-0.000035	0.000000
4	4	0	3	1	-0.000604	-0.000012
4	4	0	4	1	-0.000596	0.000011
4	4	0	5	1	0.000000	0.000000
4	4	0	6	1	-0.000002	-0.000001
4	4	0	7	1	-0.000003	-0.000002
4	4	0	8	1	-0.000002	-0.000003
4	4	0	1	2	0.000035	0.000000
4	4	0	2	2	-0.000450	0.000000
4	4	0	3	2	-0.000020	-0.000002
4	4	0	4	2	-0.000019	0.000002
4	4	0	5	2	-0.000002	-0.000001
4	4	0	6	2	0.000000	0.000000
4	4	0	7	2	0.000024	0.000031
4	4	0	8	2	0.000030	0.000023
4	4	0	1	3	0.000604	-0.000012
4	4	0	2	3	-0.000020	0.000002
4	4	0	3	3	0.001392	0.000000
4	4	0	4	3	-0.000088	0.000126
4	4	0	5	3	-0.000003	-0.000002
4	4	0	6	3	-0.000024	-0.000031
4	4	0	7	3	0.000000	0.000000
4	4	0	8	3	0.000007	-0.000007
4	4	0	1	4	0.000596	0.000011
4	4	0	2	4	-0.000019	-0.000002
4	4	0	3	4	-0.000088	-0.000126
4	4	0	4	4	0.001396	0.000000
4	4	0	5	4	-0.000002	-0.000003
4	4	0	6	4	-0.000030	-0.000023
4	4	0	7	4	-0.000007	0.000007
4	4	0	8	4	0.000000	0.000000
4	4	0	1	5	0.000000	0.000000
4	4	0	2	5	0.000002	-0.000001
4	4	0	3	5	0.000003	-0.000002
4	4	0	4	5	0.000002	-0.000003
4	4	0	5	5	-0.002993	0.000000
4	4	0	6	5	-0.000035	0.000000
4	4	0	7	5	-0.000604	0.000012
4	4	0	8	5	-0.000596	-0.000011
4	4	0	1	6	0.000002	-0.000001
4	4	0	2	6	0.000000	0.000000
4	4	0	3	6	-0.000024	0.000031
4	4	0	4	6	-0.000030	0.000023
4	4	0	5	6	0.000035	0.000000
4	4	0	6	6	-0.000450	0.000000
4	4	0	7	6	-0.000020	0.000002
4	4	0	8	6	-0.000019	-0.000002
4	4	0	1	7	0.000003	-0.000002
4	4	0	2	7	0.000024	-0.000031
4	4	0	3	7	0.000000	0.000000
4	4	0	4	7	-0.000007	-0.000007
4	4	0	5	7	0.000604	0.000012
4	4	0	6	7	-0.000020	-0.000002
4	4	0	7	7	0.001392	0.000000
4	4	0	8	7	-0.000088	-0.000126
4	4	0	1	8	0.000002	-0.000003
4	4	0	2	8	0.000030	-0.000023
4	4	0	3	8	0.000007	0.000007
4	4	0	4	8	0.000000	0.000000
4	4	0	5	8	0.000596	-0.000011
4	4	0	6	8	-0.000019	0.000002
4	4	0	7	8	-0.000088	0.000126
4	4	0	8	8	0.001396	0.000000
4	4	1	1	1	-0.001584	0.000000
4	4	1	2	1	-0.000674	0.000000
4	4	1	3	1	-0.000284	0.000025
4	4	1	4	1	-0.000280	-0.000026
4	4	1	5	1	0.000000	0.000000
4	4	1	6	1	0.000004	0.000005
4	4	1	7	1	0.000037	-0.000003
4	4	1	8	1	-0.000003	0.000037
4	4	1	1	2	0.000674	0.000000
4	4	1	2	2	-0.000206	0.000000
4	4	1	3	2	0.000165	0.000002
4	4	1	4	2	0.000163	-0.000003
4	4	1	5	2	0.000004	0.000005
4	4	1	6	2	0.000000	0.000000
4	4	1	7	2	0.000007	-0.000006
4	4	1	8	2	-0.000006	0.000007
4	4	1	1	3	0.000284	0.000025
4	4	1	2	3	0.000165	-0.000002
4	4	1	3	3	0.000836	0.000000
4	4	1	4	3	0.000224	-0.000020
4	4	1	5	3	0.000037	-0.000003
4	4	1	6	3	-0.000007	0.000006
4	4	1	7	3	0.000000	0.000000
4	4	1	8	3	-0.000020	0.000021
4	4	1	1	4	0.000280	-0.000026
4	4	1	2	4	0.000163	0.000003
4	4	1	3	4	0.000224	0.000020
4	4	1	4	4	0.000830	0.000000
4	4	1	5	4	-0.000003	0.000037
4	4	1	6	4	0.000006	-0.000007
4	4	1	7	4	0.000020	-0.000021
4	4	1	8	4	0.000000	0.000000
4	4	1	1	5	0.000000	0.000000
4	4	1	2	5	-0.000004	0.000005
4	4	1	3	5	-0.000037	-0.000003
4	4	1	4	5	0.000003	0.000037
4	4	1	5	5	-0.001584	0.000000
4	4	1	6	5	-0.000674	0.000000
4	4	1	7	5	-0.000284	-0.000025
4	4	1	8	5	-0.000280	0.000026
4	4	1	1	6	-0.000004	0.000005
4	4	1	2	6	0.000000	0.000000
4	4	1	3	6	-0.000007	-0.000006
4	4	1	4	6	0.000006	0.000007
4	4	1	5	6	0.000674	0.000000
4	4	1	6	6	-0.000206	0.000000
4	4	1	7	6	0.000165	-0.000002
4	4	1	8	6	0.000163	0.000003
4	4	1	1	7	-0.000037	-0.000003
4	4	1	2	7	0.000007	0.000006
4	4	1	3	7	0.000000	0.000000
4	4	1	4	7	0.000020	0.000021
4	4	1	5	7	0.000284	-0.000025
4	4	1	6	7	0.000165	0.000002
4	4	1	7	7	0.000836	0.000000
4	4	1	8	7	0.000224	0.000020
4	4	1	1	8	0.000003	0.000037
4	4	1	2	8	-0.000006	-0.000007
4	4	1	3	8	-0.000020	-0.000021
4	4	1	4	8	0.000000	0.000000
4	4	1	5	8	0.000280	0.000026
4	4	1	6	8	0.000163	-0.000003
4	4	1	7	8	0.000224	-0.000020
4	4	1	8	8	0.000830	0.000000
4	4	2	1	1	-0.000697	0.000000
4	4	2	2	1	-0.000449	0.000000
4	4	2	3	1	-0.000035	0.000020
4	4	2	4	1	-0.000034	-0.000020
4	4	2	5	1	0.000000	0.000000
4	4	2	6	1	0.000004	0.000004
4	4	2	7	1	0.000025	-0.000013
4	4	2	8	1	-0.000014	0.000026
4	4	2	1	2	0.000449	0.000000
4	4	2	2	2	0.000117	0.000000
4	4	2	3	2	0.000096	-0.000004
4	4	2	4	2	0.000095	0.000004
4	4	2	5	2	0.000004	0.000004
4	4	2	6	2	0.000000	0.000000
4	4	2	7	2	-0.000013	-0.000009
4	4	2	8	2	-0.000009	-0.000013
4	4	2	1	3	0.000035	0.000020
4	4	2	2	3	0.000096	0.000004
4	4	2	3	3	0.000278	0.000000
4	4	2	4	3	-0.000014	0.000005
4	4	2	5	3	0.000025	-0.000013
4	4	2	6	3	0.000013	0.000009
4	4	2	7	3	0.000000	0.000000
4	4	2	8	3	-0.000006	0.000007
4	4	2	1	4	0.000034	-0.000020
4	4	2	2	4	0.000095	-0.000004
4	4	2	3	4	-0.000014	-0.000005
4	4	2	4	4	0.000278	0.000000
4	4	2	5	4	-0.000014	0.000026
4	4	2	6	4	0.000009	0.000013
4	4	2	7	4	0.000006	-0.000007
4	4	2	8	4	0.000000	0.000000
4	4	2	1	5	0.000000	0.000000
4	4	2	2	5	-0.000004	0.000004
4	4	2	3	5	-0.000025	-0.000013
4	4	2	4	5	0.000014	0.000026
4	4	2	5	5	-0.000697	0.000000
4	4	2	6	5	-0.000449	0.000000
4	4	2	7	5	-0.000035	-0.000020
4	4	2	8	5	-0.000034	0.000020
4	4	2	1	6	-0.000004	0.000004
4	4	2	2	6	0.000000	0.000000
4	4	2	3	6	0.000013	-0.000009
4	4	2	4	6	0.000009	-0.000013
4	4	2	5	6	0.000449	0.000000
4	4	2	6	6	0.000117	0.000000
4	4	2	7	6	0.000096	0.000004
4	4	2	8	6	0.000095	-0.000004
4	4	2	1	7	-0.000025	-0.000013
4	4	2	2	7	-0.000013	0.000009
4	4	2	3	7	0.000000	0.000000
4	4	2	4	7	0.000006	0.000007
4	4	2	5	7	0.000035	-0.000020
4	4	2	6	7	0.000096	-0.000004
4	4	2	7	7	0.000278	0.000000
4	4	2	8	7	-0.000014	-0.000005
4	4	2	1	8	0.000014	0.000026
4	4	2	2	8	-0.000009	0.000013
4	4	2	3	8	-0.000006	-0.000007
4	4	2	4	8	0.000000	0.000000
4	4	2	5	8	0.000034	0.000020
4	4	2	6	8	0.000095	0.000004
4	4	2	7	8	-0.000014	0.000005
4	4	2	8	8	0.000278	0.000000
4	4	3	1	1	-0.000568	0.000000
4	4	3	2	1	-0.000235	0.000000
4	4	3	3	1	-0.000025	-0.000001
4	4	3	4	1	-0.000025	0.000001
4	4	3	5	1	0.000000	0.000000
4	4	3	6	1	0.000004	0.000004
4	4	3	7	1	0.000008	0.000006
4	4	3	8	1	0.000006	0.000007
4	4	3	1	2	0.000235	0.000000
4	4	3	2	2	0.000196	0.000000
4	4	3	3	2	-0.000011	-0.000009
4	4	3	4	2	-0.000011	0.000009
4	4	3	5	2	0.000004	0.000004
4	4	3	6	2	0.000000	0.000000
4	4	3	7	2	0.000008	0.000002
4	4	3	8	2	0.000002	0.000008
4	4	3	1	3	0.000025	-0.000001
4	4	3	2	3	-0.000011	0.000009
4	4	3	3	3	0.000198	0.000000
4	4	3	4	3	-0.000093	0.000054
4	4	3	5	3	0.000008	0.000006
4	4	3	6	3	-0.000008	-0.000002
4	4	3	7	3	0.000000	0.000000
4	4	3	8	3	-0.000003	0.000003
4	4	3	1	4	0.000025	0.000001
4	4	3	2	4	-0.000011	-0.000009
4	4	3	3	4	-0.000093	-0.000054
4	4	3	4	4	0.000201	0.000000
4	4	3	5	4	0.000006	0.000007
4	4	3	6	4	-0.000002	-0.000008
4	4	3	7	4	0.000003	-0.000003
4	4	3	8	4	0.000000	0.000000
4	4	3	1	5	0.000000	0.000000
4	4	3	2	5	-0.000004	0.000004
4	4	3	3	5	-0.000008	0.000006
4	4	3	4	5	-0.000006	0.000007
4	4	3	5	5	-0.000568	0.000000
4	4	3	6	5	-0.000235	0.000000
4	4	3	7	5	-0.000025	0.000001
4	4	3	8	5	-0.000025	-0.000001
4	4	3	1	6	-0.000004	0.000004
4	4	3	2	6	0.000000	0.000000
4	4	3	3	6	-0.000008	0.000002
4	4	3	4	6	-0.000002	0.000008
4	4	3	5	6	0.000235	0.000000
4	4	3	6	6	0.000196	0.000000
4	4	3	7	6	-0.000011	0.000009
4	4	3	8	6	-0.000011	-0.000009
4	4	3	1	7	-0.000008	0.000006
4	4	3	2	7	0.000008	-0.000002
4	4	3	3	7	0.000000	0.000000
4	4	3	4	7	0.000003	0.000003
4	4	3	5	7	0.000025	0.000001
4	4	3	6	7	-0.000011	-0.000009
4	4	3	7	7	0.000198	0.000000
4	4	3	8	7	-0.000093	-0.000054
4	4	3	1	8	-0.000006	0.000007
4	4	3	2	8	0.000002	-0.000008
4	4	3	3	8	-0.000003	-0.000003
4	4	3	4	8	0.000000	0.000000
4	4	3	5	8	0.000025	-0.000001
4	4	3	6	8	-0.000011	0.000009
4	4	3	7	8	-0.000093	0.000054
4	4	3	8	8	0.000201	0.000000
4	4	4	1	1	-0.000565	0.000000
4	4	4	2	1	-0.000116	0.000000
4	4	4	3	1	-0.000119	0.000009
4	4	4	4	1	-0.000117	-0.000009
4	4	4	5	1	0.000000	0.000000
4	4	4	6	1	-0.000009	-0.000009
4	4	4	7	1	0.000009	0.000000
4	4	4	8	1	0.000000	0.000009
4	4	4	1	2	0.000116	0.000000
4	4	4	2	2	0.000142	0.000000
4	4	4	3	2	0.000074	-0.000016
4	4	4	4	2	0.000073	0.000016
4	4	4	5	2	-0.000009	-0.000009
4	4	4	6	2	0.000000	0.000000
4	4	4	7	2	0.000034	-0.000016
4	4	4	8	2	-0.000016	0.000034
4	4	4	1	3	0.000119	0.000009
4	4	4	2	3	0.000074	0.000016
4	4	4	3	3	0.000146	0.000000
4	4	4	4	3	0.000075	-0.000033
4	4	4	5	3	0.000009	0.000000
4	4	4	6	3	-0.000034	0.000016
4	4	4	7	3	0.000000	0.000000
4	4	4	8	3	0.000016	-0.000016
4	4	4	1	4	0.000117	-0.000009
4	4	4	2	4	0.000073	-0.000016
4	4	4	3	4	0.000075	0.000033
4	4	4	4	4	0.000144	0.000000
4	4	4	5	4	0.000000	0.000009
4	4	4	6	4	0.000016	-0.000034
4	4	4	7	4	-0.000016	0.000016
4	4	4	8	4	0.000000	0.000000
4	4	4	1	5	0.000000	0.000000
4	4	4	2	5	0.000009	-0.000009
4	4	4	3	5	-0.000009	0.000000
4	4	4	4	5	0.000000	0.000009
4	4	4	5	5	-0.000565	0.000000
4	4	4	6	5	-0.000116	0.000000
4	4	4	7	5	-0.000119	-0.000009
4	4	4	8	5	-0.000117	0.000009
4	4	4	1	6	0.000009	-0.000009
4	4	4	2	6	0.000000	0.000000
4	4	4	3	6	-0.000034	-0.000016
4	4	4	4	6	0.000016	0.000034
4	4	4	5	6	0.000116	0.000000
4	4	4	6	6	0.000142	0.000000
4	4	4	7	6	0.000074	0.000016
4	4	4	8	6	0.000073	-0.000016
4	4	4	1	7	-0.000009	0.000000
4	4	4	2	7	0.000034	0.000016
4	4	4	3	7	0.000000	0.000000
4	4	4	4	7	-0.000016	-0.000016
4	4	4	5	7	0.000119	-0.000009
4	4	4	6	7	0.000074	-0.000016
4	4	4	7	7	0.000146	0.000000
4	4	4	8	7	0.000075	0.000033
4	4	4	1	8	0.000000	0.000009
4	4	4	2	8	-0.000016	-0.000034
4	4	4	3	8	0.000016	0.000016
4	4	4	4	8	0.000000	0.000000
4	4	4	5	8	0.000117	0.000009
4	4	4	6	8	0.000073	0.000016
4	4	4	7	8	0.000075	-0.000033
4	4	4	8	8	0.000144	0.000000
