       #
       # Generated by the Wannier90 code http://www.wannier.org
       # On  1Apr2018 at 06:55:25 
       #
CRYSTAL
PRIMVEC
   3.0715001   0.0000000   0.0000000
   0.0300198   3.0713534   0.0000000
   0.0300198   0.0297278   3.0712095
CONVVEC
   3.0715001   0.0000000   0.0000000
   0.0300198   3.0713534   0.0000000
   0.0300198   0.0297278   3.0712095
PRIMCOORD
     1  1
Sn      0.0000000   0.0000000   0.0000000


BEGIN_BLOCK_DATAGRID_3D
3D_field
BEGIN_DATAGRID_3D_UNKNOWN
    40    40    40
   -3.288117   -3.256135   -3.224770
   5.9894252   0.0000000   0.0000000
   0.0585386   5.9891391   0.0000000
   0.0585386   0.0579692   5.9888585
  0.36595E-02  0.42451E-02  0.46814E-02  0.45336E-02  0.36492E-02  0.21886E-02
  0.39495E-03 -0.16198E-02 -0.38955E-02 -0.64995E-02 -0.93972E-02 -0.12418E-01
 -0.15318E-01 -0.17863E-01 -0.19845E-01 -0.21118E-01 -0.21744E-01 -0.22132E-01
 -0.22863E-01 -0.24158E-01 -0.25527E-01 -0.26119E-01 -0.25541E-01 -0.24262E-01
 -0.23142E-01 -0.22615E-01 -0.22397E-01 -0.21883E-01 -0.20683E-01 -0.18763E-01
 -0.16278E-01 -0.13427E-01 -0.10431E-01 -0.75303E-02 -0.49065E-02 -0.25991E-02
 -0.52764E-03  0.13627E-02  0.29446E-02  0.39241E-02  0.42450E-02  0.45934E-02
  0.48623E-02  0.46766E-02  0.38739E-02  0.25633E-02  0.94229E-03 -0.89561E-03
 -0.29864E-02 -0.53807E-02 -0.80168E-02 -0.10688E-01 -0.13119E-01 -0.15047E-01
 -0.16247E-01 -0.16558E-01 -0.16048E-01 -0.15194E-01 -0.14713E-01 -0.14993E-01
 -0.15682E-01 -0.16014E-01 -0.15621E-01 -0.14952E-01 -0.14788E-01 -0.15423E-01
 -0.16403E-01 -0.16988E-01 -0.16718E-01 -0.15550E-01 -0.13659E-01 -0.11261E-01
 -0.86036E-02 -0.59557E-02 -0.35293E-02 -0.13897E-02  0.52006E-03  0.22375E-02
  0.36414E-02  0.44853E-02  0.46813E-02  0.48622E-02  0.50407E-02  0.49094E-02
  0.42880E-02  0.32139E-02  0.18231E-02  0.19790E-03 -0.16665E-02 -0.37792E-02
 -0.60494E-02 -0.82570E-02 -0.10121E-01 -0.11385E-01 -0.11837E-01 -0.11333E-01
 -0.99537E-02 -0.81800E-02 -0.67513E-02 -0.61447E-02 -0.61692E-02 -0.62214E-02
 -0.60079E-02 -0.59098E-02 -0.65486E-02 -0.80640E-02 -0.99157E-02 -0.11337E-01
 -0.11858E-01 -0.11420E-01 -0.10174E-01 -0.83281E-02 -0.61248E-02 -0.38357E-02
 -0.16795E-02  0.25163E-03  0.19637E-02  0.34451E-02  0.45734E-02  0.51673E-02
  0.45335E-02  0.46765E-02  0.49093E-02  0.49752E-02  0.46668E-02  0.39417E-02
  0.28696E-02  0.15292E-02 -0.32199E-04 -0.17610E-02 -0.35330E-02 -0.51309E-02
 -0.62934E-02 -0.67888E-02 -0.64370E-02 -0.51223E-02 -0.29098E-02 -0.20494E-03
  0.23137E-02  0.40845E-02  0.50180E-02  0.53794E-02  0.53065E-02  0.45646E-02
  0.28613E-02  0.33085E-03 -0.24032E-02 -0.46301E-02 -0.59454E-02 -0.62962E-02
 -0.58044E-02 -0.46474E-02 -0.30474E-02 -0.12540E-02  0.52353E-03  0.21629E-02
  0.35986E-02  0.47500E-02  0.54873E-02  0.56991E-02  0.36491E-02  0.38736E-02
  0.42878E-02  0.46667E-02  0.47765E-02  0.45022E-02  0.38535E-02  0.29112E-02
  0.17831E-02  0.59243E-03 -0.50733E-03 -0.13158E-02 -0.16082E-02 -0.11870E-02
  0.94862E-04  0.23335E-02  0.55047E-02  0.93229E-02  0.13205E-01  0.16476E-01
  0.18657E-01  0.19545E-01  0.19064E-01  0.17189E-01  0.14089E-01  0.10278E-01
  0.64886E-02  0.33395E-02  0.11236E-02 -0.13912E-03 -0.54728E-03 -0.24687E-03
  0.56974E-03  0.16881E-02  0.29207E-02  0.41196E-02  0.51463E-02  0.58498E-02
  0.60916E-02  0.58231E-02  0.21884E-02  0.25631E-02  0.32137E-02  0.39415E-02
  0.45021E-02  0.47334E-02  0.46047E-02  0.42035E-02  0.36885E-02  0.32332E-02
  0.30005E-02  0.31605E-02  0.38992E-02  0.53873E-02  0.77472E-02  0.11053E-01
  0.15303E-01  0.20305E-01  0.25556E-01  0.30280E-01  0.33643E-01  0.35013E-01
  0.34128E-01  0.31161E-01  0.26707E-01  0.21622E-01  0.16726E-01  0.12553E-01
  0.93066E-02  0.69908E-02  0.55352E-02  0.48207E-02  0.46782E-02  0.49260E-02
  0.54042E-02  0.59575E-02  0.64013E-02  0.65363E-02  0.62186E-02  0.54425E-02
  0.39471E-03  0.94198E-03  0.18228E-02  0.28693E-02  0.38534E-02  0.46046E-02
  0.50817E-02  0.53795E-02  0.56767E-02  0.61551E-02  0.69612E-02  0.82335E-02
  0.10136E-01  0.12832E-01  0.16423E-01  0.20934E-01  0.26319E-01  0.32392E-01
  0.38685E-01  0.44385E-01  0.48490E-01  0.50154E-01  0.49020E-01  0.45378E-01
  0.40044E-01  0.34023E-01  0.28150E-01  0.22912E-01  0.18506E-01  0.14987E-01
  0.12341E-01  0.10476E-01  0.92321E-02  0.84408E-02  0.79617E-02  0.76524E-02
  0.73271E-02  0.67806E-02  0.58738E-02  0.46163E-02 -0.16201E-02 -0.89602E-03
  0.19749E-03  0.15288E-02  0.29109E-02  0.42033E-02  0.53794E-02  0.65310E-02
  0.78147E-02  0.93811E-02  0.11349E-01  0.13845E-01  0.17035E-01  0.21080E-01
  0.26052E-01  0.31896E-01  0.38452E-01  0.45448E-01  0.52400E-01  0.58531E-01
  0.62887E-01  0.64644E-01  0.63460E-01  0.59635E-01  0.53963E-01  0.47388E-01
  0.40688E-01  0.34355E-01  0.28668E-01  0.23796E-01  0.19812E-01  0.16666E-01
  0.14204E-01  0.12250E-01  0.10663E-01  0.93162E-02  0.80575E-02  0.67205E-02
  0.51886E-02  0.34667E-02 -0.38960E-02 -0.29869E-02 -0.16670E-02 -0.32650E-04
  0.17828E-02  0.36883E-02  0.56765E-02  0.78146E-02  0.10207E-01  0.12961E-01
  0.16185E-01  0.20015E-01  0.24621E-01  0.30144E-01  0.36605E-01  0.43856E-01
  0.51617E-01  0.59494E-01  0.66952E-01  0.73275E-01  0.77654E-01  0.79419E-01
  0.78298E-01  0.74530E-01  0.68758E-01  0.61770E-01  0.54274E-01  0.46810E-01
  0.39772E-01  0.33448E-01  0.28000E-01  0.23435E-01  0.19631E-01  0.16414E-01
  0.13622E-01  0.11127E-01  0.88131E-02  0.65756E-02  0.43403E-02  0.21068E-02
 -0.65001E-02 -0.53814E-02 -0.37798E-02 -0.17615E-02  0.59197E-03  0.32328E-02
  0.61549E-02  0.93809E-02  0.12961E-01  0.16981E-01  0.21563E-01  0.26854E-01
  0.32998E-01  0.40075E-01  0.48043E-01  0.56700E-01  0.65686E-01  0.74514E-01
  0.82581E-01  0.89198E-01  0.93677E-01  0.95489E-01  0.94422E-01  0.90654E-01
  0.84681E-01  0.77168E-01  0.68799E-01  0.60177E-01  0.51792E-01  0.44004E-01
  0.37027E-01  0.30925E-01  0.25643E-01  0.21045E-01  0.16966E-01  0.13253E-01
  0.98023E-02  0.65579E-02  0.35001E-02  0.64098E-03 -0.93979E-02 -0.80176E-02
 -0.60501E-02 -0.35337E-02 -0.50790E-03  0.30001E-02  0.69608E-02  0.11349E-01
  0.16185E-01  0.21563E-01  0.27624E-01  0.34496E-01  0.42254E-01  0.50902E-01
  0.60355E-01  0.70391E-01  0.80619E-01  0.90478E-01  0.99297E-01  0.10638E+00
  0.11110E+00  0.11302E+00  0.11196E+00  0.10807E+00  0.10174E+00  0.93572E-01
  0.84254E-01  0.74456E-01  0.64742E-01  0.55511E-01  0.46994E-01  0.39289E-01
  0.32413E-01  0.26306E-01  0.20836E-01  0.15838E-01  0.11187E-01  0.68457E-02
  0.28401E-02 -0.78427E-03 -0.12419E-01 -0.10689E-01 -0.82579E-02 -0.51316E-02
 -0.13165E-02  0.31599E-02  0.82330E-02  0.13845E-01  0.20015E-01  0.26854E-01
  0.34496E-01  0.43015E-01  0.52411E-01  0.62637E-01  0.73589E-01  0.85019E-01
  0.96465E-01  0.10728E+00  0.11673E+00  0.12415E+00  0.12903E+00  0.13103E+00
  0.13001E+00  0.12608E+00  0.11953E+00  0.11086E+00  0.10070E+00  0.89765E-01
  0.78703E-01  0.68004E-01  0.57935E-01  0.48611E-01  0.40087E-01  0.32375E-01
  0.25409E-01  0.19042E-01  0.13127E-01  0.76163E-02  0.25615E-02 -0.19523E-02
 -0.15319E-01 -0.13120E-01 -0.10122E-01 -0.62943E-02 -0.16090E-02  0.38985E-02
  0.10136E-01  0.17034E-01  0.24621E-01  0.32997E-01  0.42254E-01  0.52410E-01
  0.63437E-01  0.75272E-01  0.87760E-01  0.10053E+00  0.11294E+00  0.12423E+00
  0.13369E+00  0.14086E+00  0.14546E+00  0.14736E+00  0.14652E+00  0.14297E+00
  0.13682E+00  0.12830E+00  0.11782E+00  0.10603E+00  0.93699E-01  0.81495E-01
  0.69834E-01  0.58894E-01  0.48741E-01  0.39409E-01  0.30883E-01  0.23061E-01
  0.15808E-01  0.90610E-02  0.28795E-02 -0.26211E-02 -0.17864E-01 -0.15048E-01
 -0.11386E-01 -0.67898E-02 -0.11879E-02  0.53864E-02  0.12831E-01  0.21079E-01
  0.30144E-01  0.40074E-01  0.50901E-01  0.62637E-01  0.75272E-01  0.88708E-01
  0.10261E+00  0.11631E+00  0.12893E+00  0.13965E+00  0.14802E+00  0.15396E+00
  0.15764E+00  0.15922E+00  0.15876E+00  0.15621E+00  0.15140E+00  0.14414E+00
  0.13440E+00  0.12257E+00  0.10943E+00  0.95882E-01  0.82642E-01  0.70099E-01
  0.58378E-01  0.47487E-01  0.37403E-01  0.28066E-01  0.19394E-01  0.11341E-01
  0.39693E-02 -0.25914E-02 -0.19846E-01 -0.16248E-01 -0.11838E-01 -0.64380E-02
  0.93876E-04  0.77462E-02  0.16421E-01  0.26051E-01  0.36603E-01  0.48042E-01
  0.60353E-01  0.73588E-01  0.87760E-01  0.10261E+00  0.11742E+00  0.13110E+00
  0.14262E+00  0.15137E+00  0.15744E+00  0.16133E+00  0.16365E+00  0.16477E+00
  0.16483E+00  0.16371E+00  0.16104E+00  0.15620E+00  0.14860E+00  0.13808E+00
  0.12513E+00  0.11080E+00  0.96193E-01  0.82123E-01  0.68912E-01  0.56555E-01
  0.44965E-01  0.34101E-01  0.23958E-01  0.14549E-01  0.59460E-02 -0.17171E-02
 -0.21119E-01 -0.16559E-01 -0.11334E-01 -0.51233E-02  0.23324E-02  0.11052E-01
  0.20932E-01  0.31895E-01  0.43855E-01  0.56698E-01  0.70389E-01  0.85017E-01
  0.10053E+00  0.11631E+00  0.13110E+00  0.14345E+00  0.15243E+00  0.15808E+00
  0.16129E+00  0.16313E+00  0.16434E+00  0.16517E+00  0.16566E+00  0.16576E+00
  0.16522E+00  0.16331E+00  0.15892E+00  0.15109E+00  0.13968E+00  0.12552E+00
  0.11008E+00  0.94698E-01  0.80107E-01  0.66383E-01  0.53380E-01  0.41055E-01
  0.29480E-01  0.18723E-01  0.88782E-02  0.97922E-04 -0.21744E-01 -0.16049E-01
 -0.99545E-02 -0.29108E-02  0.55035E-02  0.15301E-01  0.26318E-01  0.38450E-01
  0.51615E-01  0.65684E-01  0.80616E-01  0.96463E-01  0.11294E+00  0.12893E+00
  0.14262E+00  0.15242E+00  0.15800E+00  0.16047E+00  0.16159E+00  0.16269E+00
  0.16400E+00  0.16505E+00  0.16553E+00  0.16572E+00  0.16606E+00  0.16630E+00
  0.16513E+00  0.16078E+00  0.15204E+00  0.13914E+00  0.12360E+00  0.10731E+00
  0.91527E-01  0.76561E-01  0.62305E-01  0.48715E-01  0.35869E-01  0.23833E-01
  0.12725E-01  0.27835E-02 -0.22132E-01 -0.15195E-01 -0.81806E-02 -0.20588E-03
  0.93215E-02  0.20303E-01  0.32390E-01  0.45446E-01  0.59492E-01  0.74511E-01
  0.90474E-01  0.10727E+00  0.12422E+00  0.13965E+00  0.15137E+00  0.15808E+00
  0.16046E+00  0.16096E+00  0.16211E+00  0.16488E+00  0.16819E+00  0.17019E+00
  0.16996E+00  0.16839E+00  0.16728E+00  0.16761E+00  0.16844E+00  0.16727E+00
  0.16165E+00  0.15080E+00  0.13592E+00  0.11924E+00  0.10253E+00  0.86528E-01
  0.71285E-01  0.56758E-01  0.42904E-01  0.29662E-01  0.17181E-01  0.59231E-02
 -0.22863E-01 -0.14713E-01 -0.67517E-02  0.23128E-02  0.13203E-01  0.25554E-01
  0.38682E-01  0.52396E-01  0.66948E-01  0.82577E-01  0.99292E-01  0.11672E+00
  0.13369E+00  0.14802E+00  0.15743E+00  0.16129E+00  0.16159E+00  0.16211E+00
  0.16584E+00  0.17279E+00  0.17993E+00  0.18349E+00  0.18183E+00  0.17666E+00
  0.17165E+00  0.16964E+00  0.17053E+00  0.17140E+00  0.16859E+00  0.16004E+00
  0.14631E+00  0.12968E+00  0.11237E+00  0.95596E-01  0.79714E-01  0.64648E-01
  0.50073E-01  0.35660E-01  0.21615E-01  0.88025E-02 -0.24158E-01 -0.14992E-01
 -0.61449E-02  0.40836E-02  0.16474E-01  0.30277E-01  0.44381E-01  0.58527E-01
  0.73271E-01  0.89194E-01  0.10637E+00  0.12415E+00  0.14085E+00  0.15396E+00
  0.16133E+00  0.16313E+00  0.16269E+00  0.16488E+00  0.17279E+00  0.18519E+00
  0.19691E+00  0.20222E+00  0.19875E+00  0.18912E+00  0.17897E+00  0.17310E+00
  0.17252E+00  0.17416E+00  0.17332E+00  0.16675E+00  0.15423E+00  0.13788E+00
  0.12024E+00  0.10299E+00  0.86811E-01  0.71543E-01  0.56489E-01  0.40973E-01
  0.25286E-01  0.10811E-01 -0.25526E-01 -0.15682E-01 -0.61691E-02  0.50173E-02
  0.18655E-01  0.33640E-01  0.48487E-01  0.62883E-01  0.77650E-01  0.93672E-01
  0.11109E+00  0.12903E+00  0.14545E+00  0.15764E+00  0.16364E+00  0.16434E+00
  0.16400E+00  0.16819E+00  0.17993E+00  0.19691E+00  0.21230E+00  0.21892E+00
  0.21393E+00  0.20062E+00  0.18613E+00  0.17680E+00  0.17447E+00  0.17610E+00
  0.17631E+00  0.17100E+00  0.15934E+00  0.14324E+00  0.12544E+00  0.10796E+00
  0.91688E-01  0.76402E-01  0.61056E-01  0.44684E-01  0.27664E-01  0.11832E-01
 -0.26117E-01 -0.16013E-01 -0.62209E-02  0.53790E-02  0.19543E-01  0.35011E-01
  0.50150E-01  0.64639E-01  0.79414E-01  0.95483E-01  0.11301E+00  0.13102E+00
  0.14735E+00  0.15921E+00  0.16477E+00  0.16517E+00  0.16504E+00  0.17019E+00
  0.18349E+00  0.20222E+00  0.21892E+00  0.22594E+00  0.22031E+00  0.20562E+00
  0.18952E+00  0.17888E+00  0.17584E+00  0.17735E+00  0.17781E+00  0.17286E+00
  0.16143E+00  0.14537E+00  0.12747E+00  0.10990E+00  0.93601E-01  0.78314E-01
  0.62844E-01  0.46109E-01  0.28532E-01  0.12137E-01 -0.25539E-01 -0.15620E-01
 -0.60070E-02  0.53066E-02  0.19063E-01  0.34126E-01  0.49017E-01  0.63456E-01
  0.78293E-01  0.94418E-01  0.11196E+00  0.13000E+00  0.14652E+00  0.15876E+00
  0.16482E+00  0.16565E+00  0.16553E+00  0.16996E+00  0.18183E+00  0.19875E+00
  0.21393E+00  0.22031E+00  0.21521E+00  0.20199E+00  0.18770E+00  0.17857E+00
  0.17634E+00  0.17789E+00  0.17789E+00  0.17231E+00  0.16039E+00  0.14409E+00
  0.12614E+00  0.10856E+00  0.92223E-01  0.76878E-01  0.61451E-01  0.44968E-01
  0.27827E-01  0.11884E-01 -0.24260E-01 -0.14951E-01 -0.59085E-02  0.45652E-02
  0.17189E-01  0.31159E-01  0.45376E-01  0.59632E-01  0.74527E-01  0.90650E-01
  0.10806E+00  0.12607E+00  0.14297E+00  0.15621E+00  0.16371E+00  0.16575E+00
  0.16572E+00  0.16839E+00  0.17666E+00  0.18912E+00  0.20062E+00  0.20561E+00
  0.20198E+00  0.19243E+00  0.18251E+00  0.17686E+00  0.17629E+00  0.17769E+00
  0.17638E+00  0.16926E+00  0.15624E+00  0.13949E+00  0.12156E+00  0.10412E+00
  0.87791E-01  0.72391E-01  0.57176E-01  0.41451E-01  0.25533E-01  0.10838E-01
 -0.23140E-01 -0.14786E-01 -0.65470E-02  0.28624E-02  0.14089E-01  0.26706E-01
  0.40043E-01  0.53961E-01  0.68755E-01  0.84678E-01  0.10173E+00  0.11953E+00
  0.13682E+00  0.15140E+00  0.16104E+00  0.16522E+00  0.16606E+00  0.16728E+00
  0.17165E+00  0.17897E+00  0.18613E+00  0.18952E+00  0.18770E+00  0.18251E+00
  0.17756E+00  0.17553E+00  0.17617E+00  0.17651E+00  0.17293E+00  0.16356E+00
  0.14911E+00  0.13193E+00  0.11421E+00  0.97134E-01  0.81003E-01  0.65712E-01
  0.50896E-01  0.36193E-01  0.21827E-01  0.86978E-02 -0.22613E-01 -0.15421E-01
 -0.80623E-02  0.33219E-03  0.10279E-01  0.21622E-01  0.34023E-01  0.47387E-01
  0.61768E-01  0.77166E-01  0.93569E-01  0.11086E+00  0.12830E+00  0.14413E+00
  0.15620E+00  0.16331E+00  0.16630E+00  0.16761E+00  0.16964E+00  0.17310E+00
  0.17680E+00  0.17888E+00  0.17857E+00  0.17686E+00  0.17553E+00  0.17549E+00
  0.17569E+00  0.17363E+00  0.16696E+00  0.15507E+00  0.13932E+00  0.12198E+00
  0.10477E+00  0.88350E-01  0.72747E-01  0.57896E-01  0.43720E-01  0.30124E-01
  0.17259E-01  0.56160E-02 -0.22395E-01 -0.16401E-01 -0.99140E-02 -0.24018E-02
  0.64896E-02  0.16726E-01  0.28150E-01  0.40688E-01  0.54273E-01  0.68798E-01
  0.84253E-01  0.10070E+00  0.11782E+00  0.13440E+00  0.14860E+00  0.15892E+00
  0.16513E+00  0.16844E+00  0.17053E+00  0.17252E+00  0.17448E+00  0.17584E+00
  0.17634E+00  0.17630E+00  0.17617E+00  0.17569E+00  0.17355E+00  0.16801E+00
  0.15799E+00  0.14390E+00  0.12740E+00  0.11038E+00  0.94022E-01  0.78555E-01
  0.63842E-01  0.49837E-01  0.36597E-01  0.24157E-01  0.12628E-01  0.22688E-02
 -0.21882E-01 -0.16987E-01 -0.11336E-01 -0.46287E-02  0.33407E-02  0.12554E-01
  0.22913E-01  0.34355E-01  0.46810E-01  0.60176E-01  0.74455E-01  0.89764E-01
  0.10603E+00  0.12257E+00  0.13808E+00  0.15109E+00  0.16078E+00  0.16727E+00
  0.17141E+00  0.17417E+00  0.17610E+00  0.17735E+00  0.17789E+00  0.17769E+00
  0.17651E+00  0.17363E+00  0.16801E+00  0.15880E+00  0.14600E+00  0.13060E+00
  0.11415E+00  0.97984E-01  0.82749E-01  0.68452E-01  0.54924E-01  0.42122E-01
  0.30099E-01  0.18903E-01  0.86200E-02 -0.58216E-03 -0.20682E-01 -0.16717E-01
 -0.11857E-01 -0.59441E-02  0.11248E-02  0.93077E-02  0.18507E-01  0.28669E-01
  0.39772E-01  0.51792E-01  0.64742E-01  0.78703E-01  0.93699E-01  0.10943E+00
  0.12513E+00  0.13968E+00  0.15204E+00  0.16166E+00  0.16860E+00  0.17333E+00
  0.17631E+00  0.17782E+00  0.17789E+00  0.17639E+00  0.17294E+00  0.16697E+00
  0.15800E+00  0.14600E+00  0.13165E+00  0.11608E+00  0.10044E+00  0.85531E-01
  0.71608E-01  0.58624E-01  0.46471E-01  0.35094E-01  0.24472E-01  0.14602E-01
  0.55582E-02 -0.25150E-02 -0.18762E-01 -0.15549E-01 -0.11419E-01 -0.62950E-02
 -0.13794E-03  0.69919E-02  0.14988E-01  0.23797E-01  0.33449E-01  0.44005E-01
  0.55512E-01  0.68005E-01  0.81495E-01  0.95883E-01  0.11080E+00  0.12553E+00
  0.13914E+00  0.15080E+00  0.16005E+00  0.16676E+00  0.17101E+00  0.17287E+00
  0.17232E+00  0.16927E+00  0.16356E+00  0.15507E+00  0.14391E+00  0.13061E+00
  0.11608E+00  0.10130E+00  0.87006E-01  0.73562E-01  0.61066E-01  0.49507E-01
  0.38837E-01  0.28970E-01  0.19801E-01  0.11280E-01  0.34740E-02 -0.34793E-02
 -0.16277E-01 -0.13658E-01 -0.10174E-01 -0.58034E-02 -0.54619E-03  0.55363E-02
  0.12342E-01  0.19813E-01  0.28001E-01  0.37027E-01  0.46995E-01  0.57936E-01
  0.69835E-01  0.82643E-01  0.96195E-01  0.11008E+00  0.12360E+00  0.13593E+00
  0.14632E+00  0.15424E+00  0.15935E+00  0.16144E+00  0.16040E+00  0.15625E+00
  0.14912E+00  0.13932E+00  0.12740E+00  0.11415E+00  0.10045E+00  0.87007E-01
  0.74257E-01  0.62365E-01  0.51391E-01  0.41360E-01  0.32229E-01  0.23863E-01
  0.16105E-01  0.88914E-02  0.22885E-02 -0.35869E-02 -0.13426E-01 -0.11261E-01
 -0.83274E-02 -0.46465E-02 -0.24593E-03  0.48216E-02  0.10477E-01  0.16667E-01
  0.23436E-01  0.30926E-01  0.39290E-01  0.48612E-01  0.58895E-01  0.70101E-01
  0.82125E-01  0.94701E-01  0.10732E+00  0.11925E+00  0.12968E+00  0.13789E+00
  0.14325E+00  0.14538E+00  0.14409E+00  0.13950E+00  0.13193E+00  0.12198E+00
  0.11039E+00  0.97987E-01  0.85532E-01  0.73563E-01  0.62365E-01  0.52056E-01
  0.42687E-01  0.34256E-01  0.26667E-01  0.19742E-01  0.13321E-01  0.73513E-02
  0.18884E-02 -0.29858E-02 -0.10431E-01 -0.86033E-02 -0.61242E-02 -0.30467E-02
  0.57050E-03  0.46789E-02  0.92328E-02  0.14204E-01  0.19632E-01  0.25643E-01
  0.32413E-01  0.40087E-01  0.48742E-01  0.58379E-01  0.68913E-01  0.80110E-01
  0.91530E-01  0.10254E+00  0.11237E+00  0.12024E+00  0.12545E+00  0.12748E+00
  0.12614E+00  0.12157E+00  0.11422E+00  0.10477E+00  0.94026E-01  0.82752E-01
  0.71609E-01  0.61067E-01  0.51391E-01  0.42688E-01  0.34957E-01  0.28117E-01
  0.22010E-01  0.16449E-01  0.11296E-01  0.65069E-02  0.21034E-02 -0.18717E-02
 -0.75302E-02 -0.59555E-02 -0.38354E-02 -0.12536E-02  0.16887E-02  0.49265E-02
  0.84413E-02  0.12251E-01  0.16414E-01  0.21045E-01  0.26306E-01  0.32376E-01
  0.39410E-01  0.47488E-01  0.56557E-01  0.66385E-01  0.76564E-01  0.86532E-01
  0.95601E-01  0.10300E+00  0.10797E+00  0.10991E+00  0.10857E+00  0.10413E+00
  0.97140E-01  0.88355E-01  0.78558E-01  0.68455E-01  0.58626E-01  0.49508E-01
  0.41360E-01  0.34256E-01  0.28117E-01  0.22780E-01  0.18059E-01  0.13788E-01
  0.98466E-02  0.61656E-02  0.27171E-02 -0.48515E-03 -0.49065E-02 -0.35292E-02
 -0.16793E-02  0.52386E-03  0.29211E-02  0.54046E-02  0.79620E-02  0.10664E-01
  0.13622E-01  0.16966E-01  0.20836E-01  0.25410E-01  0.30884E-01  0.37403E-01
  0.44966E-01  0.53381E-01  0.62308E-01  0.71288E-01  0.79719E-01  0.86816E-01
  0.91694E-01  0.93607E-01  0.92230E-01  0.87797E-01  0.81008E-01  0.72751E-01
  0.63845E-01  0.54927E-01  0.46472E-01  0.38838E-01  0.32230E-01  0.26667E-01
  0.22010E-01  0.18059E-01  0.14636E-01  0.11596E-01  0.88064E-02  0.61440E-02
  0.35281E-02  0.96239E-03 -0.25992E-02 -0.13898E-02  0.25171E-03  0.21631E-02
  0.41198E-02  0.59577E-02  0.76525E-02  0.93162E-02  0.11127E-01  0.13253E-01
  0.15838E-01  0.19042E-01  0.23061E-01  0.28066E-01  0.34101E-01  0.41056E-01
  0.48717E-01  0.56760E-01  0.64651E-01  0.71548E-01  0.76408E-01  0.78319E-01
  0.76883E-01  0.72396E-01  0.65717E-01  0.57899E-01  0.49840E-01  0.42124E-01
  0.35095E-01  0.28971E-01  0.23864E-01  0.19743E-01  0.16449E-01  0.13788E-01
  0.11596E-01  0.97273E-02  0.80119E-02  0.62695E-02  0.43778E-02  0.23422E-02
 -0.52785E-03  0.51992E-03  0.19637E-02  0.35987E-02  0.51464E-02  0.64014E-02
  0.73271E-02  0.80573E-02  0.88128E-02  0.98019E-02  0.11187E-01  0.13127E-01
  0.15807E-01  0.19393E-01  0.23958E-01  0.29480E-01  0.35869E-01  0.42905E-01
  0.50075E-01  0.56492E-01  0.61060E-01  0.62848E-01  0.61456E-01  0.57180E-01
  0.50899E-01  0.43723E-01  0.36599E-01  0.30100E-01  0.24473E-01  0.19802E-01
  0.16105E-01  0.13321E-01  0.11296E-01  0.98467E-02  0.88064E-02  0.80119E-02
  0.72642E-02  0.63491E-02  0.51195E-02  0.35762E-02  0.13625E-02  0.22373E-02
  0.34450E-02  0.47500E-02  0.58498E-02  0.65362E-02  0.67804E-02  0.67201E-02
  0.65751E-02  0.65573E-02  0.68449E-02  0.76154E-02  0.90599E-02  0.11340E-01
  0.14549E-01  0.18723E-01  0.23833E-01  0.29662E-01  0.35661E-01  0.40974E-01
  0.44686E-01  0.46112E-01  0.44971E-01  0.41454E-01  0.36195E-01  0.30125E-01
  0.24158E-01  0.18903E-01  0.14603E-01  0.11280E-01  0.88916E-02  0.73514E-02
  0.65070E-02  0.61656E-02  0.61440E-02  0.62695E-02  0.63491E-02  0.61746E-02
  0.55870E-02  0.45629E-02  0.29444E-02  0.36412E-02  0.45732E-02  0.54871E-02
  0.60915E-02  0.62184E-02  0.58734E-02  0.51881E-02  0.43396E-02  0.34992E-02
  0.28391E-02  0.25603E-02  0.28782E-02  0.39678E-02  0.59446E-02  0.88768E-02
  0.12724E-01  0.17180E-01  0.21615E-01  0.25287E-01  0.27665E-01  0.28533E-01
  0.27829E-01  0.25534E-01  0.21828E-01  0.17259E-01  0.12629E-01  0.86203E-02
  0.55585E-02  0.34741E-02  0.22886E-02  0.18885E-02  0.21034E-02  0.27171E-02
  0.35281E-02  0.43778E-02  0.51195E-02  0.55870E-02  0.56204E-02  0.51529E-02
  0.39240E-02  0.44851E-02  0.51672E-02  0.56990E-02  0.58229E-02  0.54422E-02
  0.46159E-02  0.34660E-02  0.21060E-02  0.63998E-03 -0.78545E-03 -0.19536E-02
 -0.26226E-02 -0.25931E-02 -0.17188E-02  0.96228E-04  0.27818E-02  0.59216E-02
  0.88014E-02  0.10810E-01  0.11831E-01  0.12137E-01  0.11884E-01  0.10838E-01
  0.86981E-02  0.56163E-02  0.22691E-02 -0.58190E-03 -0.25148E-02 -0.34792E-02
 -0.35868E-02 -0.29857E-02 -0.18716E-02 -0.48509E-03  0.96241E-03  0.23422E-02
  0.35762E-02  0.45629E-02  0.51529E-02  0.52257E-02  0.46650E-02  0.49232E-02
  0.49454E-02  0.43118E-02  0.29320E-02  0.10398E-02 -0.10963E-02 -0.34083E-02
 -0.60106E-02 -0.90242E-02 -0.12430E-01 -0.16050E-01 -0.19644E-01 -0.23001E-01
 -0.25959E-01 -0.28354E-01 -0.30065E-01 -0.31159E-01 -0.31910E-01 -0.32570E-01
 -0.33115E-01 -0.33310E-01 -0.33051E-01 -0.32538E-01 -0.32022E-01 -0.31462E-01
 -0.30530E-01 -0.28921E-01 -0.26592E-01 -0.23695E-01 -0.20410E-01 -0.16891E-01
 -0.13334E-01 -0.99723E-02 -0.69891E-02 -0.44067E-02 -0.20941E-02  0.75336E-04
  0.20211E-02  0.34327E-02  0.49232E-02  0.51406E-02  0.52138E-02  0.47208E-02
  0.35239E-02  0.18098E-02 -0.16546E-03 -0.23134E-02 -0.47188E-02 -0.74773E-02
 -0.10544E-01 -0.13712E-01 -0.16711E-01 -0.19308E-01 -0.21313E-01 -0.22535E-01
 -0.22863E-01 -0.22453E-01 -0.21764E-01 -0.21256E-01 -0.21058E-01 -0.20998E-01
 -0.20978E-01 -0.21173E-01 -0.21764E-01 -0.22571E-01 -0.23072E-01 -0.22794E-01
 -0.21596E-01 -0.19620E-01 -0.17068E-01 -0.14124E-01 -0.11007E-01 -0.79780E-02
 -0.52408E-02 -0.28389E-02 -0.67203E-03  0.13420E-02  0.30893E-02  0.42752E-02
  0.49452E-02  0.52137E-02  0.54530E-02  0.52409E-02  0.43726E-02  0.29546E-02
  0.12126E-02 -0.72767E-03 -0.28812E-02 -0.52861E-02 -0.78715E-02 -0.10427E-01
 -0.12683E-01 -0.14403E-01 -0.15386E-01 -0.15442E-01 -0.14479E-01 -0.12717E-01
 -0.10718E-01 -0.90951E-02 -0.81348E-02 -0.77902E-02 -0.80056E-02 -0.88990E-02
 -0.10527E-01 -0.12563E-01 -0.14352E-01 -0.15317E-01 -0.15257E-01 -0.14278E-01
 -0.12579E-01 -0.10355E-01 -0.78340E-02 -0.52748E-02 -0.28789E-02 -0.71082E-03
  0.12669E-02  0.30506E-02  0.44768E-02  0.52837E-02  0.43116E-02  0.47206E-02
  0.52408E-02  0.54508E-02  0.50727E-02  0.41144E-02  0.27521E-02  0.11456E-02
 -0.63232E-03 -0.25402E-02 -0.44750E-02 -0.62359E-02 -0.75726E-02 -0.82568E-02
 -0.80903E-02 -0.68818E-02 -0.45342E-02 -0.12539E-02  0.23569E-02  0.55194E-02
  0.76386E-02  0.84432E-02  0.78535E-02  0.58894E-02  0.28086E-02 -0.76331E-03
 -0.40127E-02 -0.63260E-02 -0.75050E-02 -0.76554E-02 -0.69703E-02 -0.56441E-02
 -0.38990E-02 -0.19756E-02 -0.62355E-04  0.17477E-02  0.34074E-02  0.48130E-02
  0.57562E-02  0.60271E-02  0.29318E-02  0.35236E-02  0.43724E-02  0.50726E-02
  0.52932E-02  0.49471E-02  0.41454E-02  0.30636E-02  0.18546E-02  0.64230E-03
 -0.43679E-03 -0.11967E-02 -0.14159E-02 -0.88353E-03  0.59007E-03  0.31970E-02
  0.70679E-02  0.12063E-01  0.17587E-01  0.22667E-01  0.26276E-01  0.27673E-01
  0.26573E-01  0.23203E-01  0.18290E-01  0.12880E-01  0.79766E-02  0.41845E-02
  0.16392E-02  0.20662E-03 -0.30225E-03 -0.71747E-04  0.69214E-03  0.17749E-02
  0.30033E-02  0.42516E-02  0.53886E-02  0.62248E-02  0.65316E-02  0.61646E-02
  0.10397E-02  0.18096E-02  0.29543E-02  0.41142E-02  0.49470E-02  0.52981E-02
  0.52150E-02  0.48687E-02  0.44636E-02  0.41805E-02  0.41750E-02  0.46143E-02
  0.56946E-02  0.76107E-02  0.10534E-01  0.14633E-01  0.20040E-01  0.26665E-01
  0.33935E-01  0.40730E-01  0.45661E-01  0.47572E-01  0.46004E-01  0.41376E-01
  0.34827E-01  0.27756E-01  0.21298E-01  0.16028E-01  0.12033E-01  0.91807E-02
  0.73117E-02  0.62650E-02  0.58510E-02  0.58758E-02  0.61782E-02  0.66112E-02
  0.69891E-02  0.70750E-02  0.66488E-02  0.56311E-02 -0.10965E-02 -0.16578E-03
  0.12123E-02  0.27518E-02  0.41452E-02  0.52149E-02  0.59665E-02  0.65515E-02
  0.71817E-02  0.80489E-02  0.93042E-02  0.11102E-01  0.13631E-01  0.17082E-01
  0.21595E-01  0.27258E-01  0.34115E-01  0.42034E-01  0.50450E-01  0.58220E-01
  0.63843E-01  0.66015E-01  0.64212E-01  0.58942E-01  0.51497E-01  0.43371E-01
  0.35702E-01  0.29046E-01  0.23533E-01  0.19121E-01  0.15737E-01  0.13260E-01
  0.11508E-01  0.10289E-01  0.94403E-02  0.88125E-02  0.82119E-02  0.74064E-02
  0.62076E-02  0.45833E-02 -0.34086E-02 -0.23138E-02 -0.72810E-03  0.11453E-02
  0.30633E-02  0.48685E-02  0.65514E-02  0.82306E-02  0.10081E-01  0.12264E-01
  0.14918E-01  0.18201E-01  0.22319E-01  0.27459E-01  0.33709E-01  0.41028E-01
  0.49286E-01  0.58209E-01  0.67201E-01  0.75212E-01  0.80894E-01  0.83078E-01
  0.81303E-01  0.76033E-01  0.68427E-01  0.59810E-01  0.51211E-01  0.43214E-01
  0.36088E-01  0.29968E-01  0.24911E-01  0.20857E-01  0.17632E-01  0.15027E-01
  0.12864E-01  0.10990E-01  0.92423E-02  0.74370E-02  0.54357E-02  0.32305E-02
 -0.60111E-02 -0.47194E-02 -0.28818E-02 -0.63279E-03  0.18542E-02  0.44633E-02
  0.71815E-02  0.10081E-01  0.13275E-01  0.16885E-01  0.21052E-01  0.25958E-01
  0.31814E-01  0.38783E-01  0.46879E-01  0.55932E-01  0.65628E-01  0.75516E-01
  0.84932E-01  0.92939E-01  0.98450E-01  0.10057E+00  0.98934E-01  0.93911E-01
  0.86385E-01  0.77413E-01  0.67908E-01  0.58523E-01  0.49708E-01  0.41778E-01
  0.34914E-01  0.29127E-01  0.24281E-01  0.20164E-01  0.16573E-01  0.13341E-01
  0.10332E-01  0.74306E-02  0.45582E-02  0.17210E-02 -0.90248E-02 -0.74781E-02
 -0.52868E-02 -0.25408E-02  0.64182E-03  0.41801E-02  0.80486E-02  0.12264E-01
  0.16885E-01  0.22022E-01  0.27840E-01  0.34530E-01  0.42270E-01  0.51151E-01
  0.61116E-01  0.71922E-01  0.83140E-01  0.94172E-01  0.10426E+00  0.11252E+00
  0.11805E+00  0.12017E+00  0.11864E+00  0.11369E+00  0.10599E+00  0.96403E-01
  0.85802E-01  0.74940E-01  0.64416E-01  0.54660E-01  0.45916E-01  0.38260E-01
  0.31623E-01  0.25844E-01  0.20717E-01  0.16048E-01  0.11700E-01  0.76062E-02
  0.37474E-02  0.15179E-03 -0.12430E-01 -0.10545E-01 -0.78723E-02 -0.44757E-02
 -0.43738E-03  0.41745E-02  0.93038E-02  0.14918E-01  0.21052E-01  0.27839E-01
  0.35468E-01  0.44099E-01  0.53824E-01  0.64649E-01  0.76480E-01  0.89058E-01
  0.10190E+00  0.11430E+00  0.12538E+00  0.13424E+00  0.14007E+00  0.14232E+00
  0.14078E+00  0.13563E+00  0.12742E+00  0.11691E+00  0.10501E+00  0.92566E-01
  0.80304E-01  0.68717E-01  0.58067E-01  0.48451E-01  0.39875E-01  0.32270E-01
  0.25474E-01  0.19281E-01  0.13522E-01  0.81393E-02  0.31605E-02 -0.13514E-02
 -0.16051E-01 -0.13713E-01 -0.10428E-01 -0.62368E-02 -0.11975E-02  0.46137E-02
  0.11101E-01  0.18201E-01  0.25957E-01  0.34530E-01  0.44099E-01  0.54763E-01
  0.66526E-01  0.79347E-01  0.93124E-01  0.10757E+00  0.12211E+00  0.13590E+00
  0.14797E+00  0.15744E+00  0.16358E+00  0.16596E+00  0.16440E+00  0.15905E+00
  0.15035E+00  0.13896E+00  0.12575E+00  0.11167E+00  0.97561E-01  0.84047E-01
  0.71425E-01  0.59800E-01  0.49210E-01  0.39661E-01  0.31067E-01  0.23238E-01
  0.15981E-01  0.92147E-02  0.29913E-02 -0.25862E-02 -0.19645E-01 -0.16712E-01
 -0.12684E-01 -0.75735E-02 -0.14167E-02  0.56938E-02  0.13630E-01  0.22318E-01
  0.31813E-01  0.42269E-01  0.53824E-01  0.66526E-01  0.80363E-01  0.95294E-01
  0.11116E+00  0.12753E+00  0.14361E+00  0.15838E+00  0.17088E+00  0.18040E+00
  0.18646E+00  0.18882E+00  0.18737E+00  0.18220E+00  0.17356E+00  0.16188E+00
  0.14782E+00  0.13229E+00  0.11631E+00  0.10072E+00  0.85996E-01  0.72315E-01
  0.59712E-01  0.48197E-01  0.37727E-01  0.28155E-01  0.19292E-01  0.11043E-01
  0.34621E-02 -0.33137E-02 -0.23002E-01 -0.19309E-01 -0.14404E-01 -0.82578E-02
 -0.88446E-03  0.76098E-02  0.17081E-01  0.27458E-01  0.38782E-01  0.51150E-01
  0.64648E-01  0.79346E-01  0.95294E-01  0.11242E+00  0.13037E+00  0.14835E+00
  0.16525E+00  0.18001E+00  0.19189E+00  0.20058E+00  0.20599E+00  0.20812E+00
  0.20698E+00  0.20256E+00  0.19486E+00  0.18392E+00  0.17000E+00  0.15377E+00
  0.13629E+00  0.11866E+00  0.10175E+00  0.85964E-01  0.71387E-01  0.57967E-01
  0.45617E-01  0.34224E-01  0.23650E-01  0.13815E-01  0.47729E-02 -0.33249E-02
 -0.25960E-01 -0.21314E-01 -0.15387E-01 -0.80913E-02  0.58902E-03  0.10533E-01
  0.21593E-01  0.33707E-01  0.46877E-01  0.61115E-01  0.76479E-01  0.93122E-01
  0.11116E+00  0.13037E+00  0.14994E+00  0.16861E+00  0.18509E+00  0.19854E+00
  0.20875E+00  0.21592E+00  0.22035E+00  0.22219E+00  0.22147E+00  0.21814E+00
  0.21204E+00  0.20285E+00  0.19035E+00  0.17468E+00  0.15663E+00  0.13748E+00
  0.11853E+00  0.10065E+00  0.84147E-01  0.68904E-01  0.54727E-01  0.41501E-01
  0.29164E-01  0.17681E-01  0.70953E-02 -0.24380E-02 -0.28354E-01 -0.22536E-01
 -0.15443E-01 -0.68828E-02  0.31958E-02  0.14632E-01  0.27256E-01  0.41026E-01
  0.55930E-01  0.71920E-01  0.89056E-01  0.10757E+00  0.12753E+00  0.14834E+00
  0.16861E+00  0.18667E+00  0.20138E+00  0.21256E+00  0.22071E+00  0.22647E+00
  0.23020E+00  0.23191E+00  0.23154E+00  0.22910E+00  0.22451E+00  0.21743E+00