       #
       # Generated by the Wannier90 code http://www.wannier.org
       # On  1Apr2018 at 06:55:25 
       #
CRYSTAL
PRIMVEC
   3.0715001   0.0000000   0.0000000
   0.0300198   3.0713534   0.0000000
   0.0300198   0.0297278   3.0712095
CONVVEC
   3.0715001   0.0000000   0.0000000
   0.0300198   3.0713534   0.0000000
   0.0300198   0.0297278   3.0712095
PRIMCOORD
     1  1
Sn      0.0000000   0.0000000   0.0000000


BEGIN_BLOCK_DATAGRID_3D
3D_field
BEGIN_DATAGRID_3D_UNKNOWN
    40    40    40
   -3.288117   -3.256135   -3.224770
   5.9894252   0.0000000   0.0000000
   0.0585386   5.9891391   0.0000000
   0.0585386   0.0579692   5.9888585
 -0.36813E-02 -0.42695E-02 -0.47077E-02 -0.45583E-02 -0.36681E-02 -0.21984E-02
 -0.39384E-03  0.16330E-02  0.39223E-02  0.65417E-02  0.94565E-02  0.12495E-01
  0.15413E-01  0.17972E-01  0.19966E-01  0.21246E-01  0.21875E-01  0.22266E-01
  0.23001E-01  0.24305E-01  0.25682E-01  0.26277E-01  0.25696E-01  0.24409E-01
  0.23283E-01  0.22752E-01  0.22532E-01  0.22016E-01  0.20809E-01  0.18878E-01
  0.16379E-01  0.13511E-01  0.10497E-01  0.75793E-02  0.49399E-02  0.26187E-02
  0.53482E-03 -0.13671E-02 -0.29588E-02 -0.39447E-02 -0.46900E-02 -0.49496E-02
 -0.49726E-02 -0.43373E-02 -0.29520E-02 -0.10516E-02  0.10945E-02  0.34176E-02
  0.60324E-02  0.90603E-02  0.12482E-01  0.16118E-01  0.19726E-01  0.23095E-01
  0.26060E-01  0.28456E-01  0.30165E-01  0.31254E-01  0.32003E-01  0.32666E-01
  0.33216E-01  0.33412E-01  0.33151E-01  0.32634E-01  0.32116E-01  0.31559E-01
  0.30632E-01  0.29027E-01  0.26696E-01  0.23793E-01  0.20496E-01  0.16963E-01
  0.13390E-01  0.10013E-01  0.70149E-02  0.44197E-02  0.20955E-02 -0.84488E-04
 -0.20391E-02 -0.34565E-02 -0.49132E-02 -0.51624E-02 -0.51570E-02 -0.44190E-02
 -0.28454E-02 -0.69895E-03  0.17202E-02  0.43343E-02  0.72632E-02  0.10634E-01
  0.14435E-01  0.18505E-01  0.22622E-01  0.26608E-01  0.30325E-01  0.33571E-01
  0.36023E-01  0.37380E-01  0.37611E-01  0.37074E-01  0.36352E-01  0.35975E-01
  0.36190E-01  0.36850E-01  0.37448E-01  0.37346E-01  0.36119E-01  0.33766E-01
  0.30597E-01  0.26959E-01  0.23064E-01  0.19048E-01  0.15078E-01  0.11369E-01
  0.80775E-02  0.52120E-02  0.26380E-02  0.23308E-03 -0.19070E-02 -0.34440E-02
 -0.45038E-02 -0.50027E-02 -0.52858E-02 -0.47825E-02 -0.33215E-02 -0.11431E-02
  0.14319E-02  0.42742E-02  0.74414E-02  0.11016E-01  0.14988E-01  0.19230E-01
  0.23561E-01  0.27816E-01  0.31850E-01  0.35415E-01  0.38039E-01  0.39159E-01
  0.38544E-01  0.36675E-01  0.34678E-01  0.33747E-01  0.34422E-01  0.36247E-01
  0.38060E-01  0.38706E-01  0.37659E-01  0.35122E-01  0.31649E-01  0.27716E-01
  0.23572E-01  0.19364E-01  0.15254E-01  0.11414E-01  0.79588E-02  0.48880E-02
  0.21141E-02 -0.41108E-03 -0.25308E-02 -0.38876E-02 -0.38029E-02 -0.46230E-02
 -0.52894E-02 -0.51723E-02 -0.40271E-02 -0.20331E-02  0.50010E-03  0.33887E-02
  0.65961E-02  0.10131E-01  0.13974E-01  0.18049E-01  0.22217E-01  0.26313E-01
  0.30153E-01  0.33446E-01  0.35669E-01  0.36183E-01  0.34702E-01  0.31808E-01
  0.28933E-01  0.27633E-01  0.28603E-01  0.31210E-01  0.33933E-01  0.35338E-01
  0.34824E-01  0.32655E-01  0.29450E-01  0.25717E-01  0.21743E-01  0.17712E-01
  0.13788E-01  0.10100E-01  0.67090E-02  0.36216E-02  0.82571E-03 -0.16253E-02
 -0.35137E-02 -0.44957E-02 -0.30515E-02 -0.40995E-02 -0.50510E-02 -0.53004E-02
 -0.45687E-02 -0.29583E-02 -0.72684E-03  0.19189E-02  0.48612E-02  0.80353E-02
  0.11408E-01  0.14947E-01  0.18558E-01  0.22070E-01  0.25255E-01  0.27801E-01
  0.29229E-01  0.28985E-01  0.26861E-01  0.23479E-01  0.20294E-01  0.18876E-01
  0.19918E-01  0.22769E-01  0.25888E-01  0.27841E-01  0.28008E-01  0.26582E-01
  0.24095E-01  0.21003E-01  0.17610E-01  0.14134E-01  0.10744E-01  0.75253E-02
  0.45008E-02  0.16926E-02 -0.83702E-03 -0.29543E-02 -0.44194E-02 -0.49455E-02
 -0.22464E-02 -0.33958E-02 -0.44946E-02 -0.50388E-02 -0.47646E-02 -0.37042E-02
 -0.20383E-02  0.43733E-04  0.23860E-02  0.48769E-02  0.74680E-02  0.10144E-01
  0.12838E-01  0.15380E-01  0.17529E-01  0.18993E-01  0.19405E-01  0.18394E-01
  0.15891E-01  0.12498E-01  0.94711E-02  0.81362E-02  0.90694E-02  0.11718E-01
  0.14787E-01  0.17046E-01  0.17911E-01  0.17444E-01  0.15997E-01  0.13918E-01
  0.11479E-01  0.89075E-02  0.63592E-02  0.38978E-02  0.15391E-02 -0.67090E-03
 -0.26237E-02 -0.41531E-02 -0.50438E-02 -0.50923E-02 -0.12211E-02 -0.24230E-02
 -0.36207E-02 -0.44413E-02 -0.46657E-02 -0.42780E-02 -0.33859E-02 -0.21352E-02
 -0.67394E-03  0.87634E-03  0.24483E-02  0.40075E-02  0.54807E-02  0.67129E-02
  0.74972E-02  0.76167E-02  0.68539E-02  0.50436E-02  0.22627E-02 -0.95069E-03
 -0.36306E-02 -0.48034E-02 -0.40530E-02 -0.17795E-02  0.10694E-02  0.35591E-02
  0.51727E-02  0.58339E-02  0.56948E-02  0.49549E-02  0.38087E-02  0.24369E-02
  0.97456E-03 -0.50732E-03 -0.19629E-02 -0.33169E-02 -0.44485E-02 -0.52054E-02
 -0.54232E-02 -0.49779E-02  0.17604E-03 -0.11206E-02 -0.24765E-02 -0.36303E-02
 -0.44098E-02 -0.47755E-02 -0.47837E-02 -0.45337E-02 -0.41376E-02 -0.37024E-02
 -0.33178E-02 -0.30656E-02 -0.30476E-02 -0.33946E-02 -0.42402E-02 -0.56895E-02
 -0.78051E-02 -0.10569E-01 -0.13783E-01 -0.16967E-01 -0.19418E-01 -0.20475E-01
 -0.19862E-01 -0.17837E-01 -0.15036E-01 -0.12135E-01 -0.95922E-02 -0.76051E-02
 -0.62020E-02 -0.53367E-02 -0.49270E-02 -0.48693E-02 -0.50579E-02 -0.53954E-02
 -0.57850E-02 -0.61215E-02 -0.62923E-02 -0.61801E-02 -0.56725E-02 -0.47020E-02
  0.19700E-02  0.50098E-03 -0.11184E-02 -0.26985E-02 -0.40999E-02 -0.52718E-02
 -0.62383E-02 -0.70609E-02 -0.78176E-02 -0.86019E-02 -0.95266E-02 -0.10718E-01
 -0.12301E-01 -0.14376E-01 -0.17003E-01 -0.20182E-01 -0.23844E-01 -0.27822E-01
 -0.31807E-01 -0.35336E-01 -0.37862E-01 -0.38921E-01 -0.38323E-01 -0.36232E-01
 -0.33086E-01 -0.29410E-01 -0.25653E-01 -0.22126E-01 -0.19008E-01 -0.16385E-01
 -0.14278E-01 -0.12652E-01 -0.11432E-01 -0.10501E-01 -0.97252E-02 -0.89729E-02
 -0.81364E-02 -0.71259E-02 -0.58664E-02 -0.43266E-02  0.40542E-02  0.23540E-02
  0.38484E-03 -0.17045E-02 -0.37897E-02 -0.58054E-02 -0.77443E-02 -0.96401E-02
 -0.11559E-01 -0.13602E-01 -0.15904E-01 -0.18607E-01 -0.21832E-01 -0.25657E-01
 -0.30098E-01 -0.35092E-01 -0.40466E-01 -0.45915E-01 -0.51014E-01 -0.55262E-01
 -0.58161E-01 -0.59334E-01 -0.58626E-01 -0.56156E-01 -0.52278E-01 -0.47470E-01
 -0.42225E-01 -0.36974E-01 -0.32039E-01 -0.27616E-01 -0.23788E-01 -0.20557E-01
 -0.17864E-01 -0.15601E-01 -0.13624E-01 -0.11784E-01 -0.99584E-02 -0.80586E-02
 -0.60328E-02 -0.38792E-02  0.62401E-02  0.42861E-02  0.19266E-02 -0.71557E-03
 -0.35191E-02 -0.63911E-02 -0.92833E-02 -0.12206E-01 -0.15233E-01 -0.18499E-01
 -0.22156E-01 -0.26342E-01 -0.31162E-01 -0.36684E-01 -0.42917E-01 -0.49756E-01
 -0.56921E-01 -0.63964E-01 -0.70333E-01 -0.75465E-01 -0.78870E-01 -0.80201E-01
 -0.79318E-01 -0.76324E-01 -0.71538E-01 -0.65437E-01 -0.58575E-01 -0.51509E-01
 -0.44709E-01 -0.38486E-01 -0.32973E-01 -0.28179E-01 -0.24045E-01 -0.20480E-01
 -0.17346E-01 -0.14480E-01 -0.11724E-01 -0.89719E-02 -0.61847E-02 -0.33940E-02
  0.83230E-02  0.61219E-02  0.33719E-02  0.17894E-03 -0.33270E-02 -0.70169E-02
 -0.10798E-01 -0.14661E-01 -0.18695E-01 -0.23064E-01 -0.27943E-01 -0.33477E-01
 -0.39777E-01 -0.46919E-01 -0.54897E-01 -0.63529E-01 -0.72405E-01 -0.80926E-01
 -0.88437E-01 -0.94343E-01 -0.98178E-01 -0.99637E-01 -0.98596E-01 -0.95139E-01
 -0.89547E-01 -0.82271E-01 -0.73898E-01 -0.65088E-01 -0.56462E-01 -0.48472E-01
 -0.41333E-01 -0.35076E-01 -0.29634E-01 -0.24903E-01 -0.20740E-01 -0.16957E-01
 -0.13364E-01 -0.98322E-02 -0.63330E-02 -0.29262E-02  0.10143E-01  0.77193E-02
  0.45979E-02  0.88810E-03 -0.32519E-02 -0.76529E-02 -0.12194E-01 -0.16857E-01
 -0.21741E-01 -0.27021E-01 -0.32894E-01 -0.39549E-01 -0.47144E-01 -0.55762E-01
 -0.65328E-01 -0.75531E-01 -0.85809E-01 -0.95448E-01 -0.10374E+00 -0.11011E+00
 -0.11416E+00 -0.11567E+00 -0.11455E+00 -0.11084E+00 -0.10474E+00 -0.96624E-01
 -0.87075E-01 -0.76814E-01 -0.66583E-01 -0.56980E-01 -0.48354E-01 -0.40807E-01
 -0.34274E-01 -0.28604E-01 -0.23606E-01 -0.19063E-01 -0.14773E-01 -0.10596E-01
 -0.64962E-02 -0.25422E-02  0.11581E-01  0.89656E-02  0.54961E-02  0.13151E-02
 -0.33547E-02 -0.82946E-02 -0.13380E-01 -0.18617E-01 -0.24115E-01 -0.30042E-01
 -0.36616E-01 -0.44089E-01 -0.52684E-01 -0.62467E-01 -0.73245E-01 -0.84555E-01
 -0.95718E-01 -0.10595E+00 -0.11453E+00 -0.12092E+00 -0.12488E+00 -0.12633E+00
 -0.12526E+00 -0.12162E+00 -0.11544E+00 -0.10695E+00 -0.96709E-01 -0.85484E-01
 -0.74099E-01 -0.63264E-01 -0.53466E-01 -0.44923E-01 -0.37593E-01 -0.31271E-01
 -0.25695E-01 -0.20625E-01 -0.15864E-01 -0.11258E-01 -0.67317E-02 -0.23300E-02
  0.12453E-01  0.96865E-02  0.59087E-02  0.13241E-02 -0.37370E-02 -0.89823E-02
 -0.14300E-01 -0.19764E-01 -0.25527E-01 -0.31757E-01 -0.38678E-01 -0.46589E-01
 -0.55745E-01 -0.66166E-01 -0.77544E-01 -0.89312E-01 -0.10073E+00 -0.11095E+00
 -0.11919E+00 -0.12501E+00 -0.12840E+00 -0.12962E+00 -0.12880E+00 -0.12573E+00
 -0.12006E+00 -0.11180E+00 -0.10144E+00 -0.89845E-01 -0.77927E-01 -0.66463E-01
 -0.56025E-01 -0.46928E-01 -0.39181E-01 -0.32548E-01 -0.26726E-01 -0.21470E-01
 -0.16581E-01 -0.11858E-01 -0.71361E-02 -0.24127E-02  0.12449E-01  0.96001E-02
  0.56198E-02  0.77806E-03 -0.44640E-02 -0.97133E-02 -0.14871E-01 -0.20111E-01
 -0.25680E-01 -0.31780E-01 -0.38626E-01 -0.46507E-01 -0.55652E-01 -0.66019E-01
 -0.77252E-01 -0.88757E-01 -0.99749E-01 -0.10926E+00 -0.11638E+00 -0.12078E+00
 -0.12291E+00 -0.12363E+00 -0.12334E+00 -0.12151E+00 -0.11723E+00 -0.10999E+00
 -0.10020E+00 -0.88891E-01 -0.77139E-01 -0.65774E-01 -0.55381E-01 -0.46308E-01
 -0.38610E-01 -0.32077E-01 -0.26421E-01 -0.21413E-01 -0.16831E-01 -0.12370E-01
 -0.77375E-02 -0.28822E-02  0.11288E-01  0.84876E-02  0.45308E-02 -0.27902E-03
 -0.53741E-02 -0.10262E-01 -0.14844E-01 -0.19397E-01 -0.24291E-01 -0.29785E-01
 -0.36077E-01 -0.43388E-01 -0.51865E-01 -0.61429E-01 -0.71747E-01 -0.82267E-01
 -0.92140E-01 -0.10019E+00 -0.10535E+00 -0.10748E+00 -0.10771E+00 -0.10768E+00
 -0.10812E+00 -0.10817E+00 -0.10609E+00 -0.10073E+00 -0.92301E-01 -0.82005E-01
 -0.71152E-01 -0.60654E-01 -0.51056E-01 -0.42664E-01 -0.35552E-01 -0.29579E-01
 -0.24530E-01 -0.20211E-01 -0.16351E-01 -0.12521E-01 -0.83047E-02 -0.36203E-02
  0.90256E-02  0.64886E-02  0.29075E-02 -0.14355E-02 -0.59475E-02 -0.10091E-01
 -0.13759E-01 -0.17289E-01 -0.21133E-01 -0.25603E-01 -0.30864E-01 -0.37038E-01
 -0.44186E-01 -0.52219E-01 -0.60883E-01 -0.69698E-01 -0.77765E-01 -0.83751E-01
 -0.86521E-01 -0.86187E-01 -0.84477E-01 -0.83679E-01 -0.84805E-01 -0.86707E-01
 -0.87009E-01 -0.83967E-01 -0.77549E-01 -0.69023E-01 -0.59850E-01 -0.50995E-01
 -0.42929E-01 -0.35877E-01 -0.29903E-01 -0.24943E-01 -0.20880E-01 -0.17563E-01
 -0.14686E-01 -0.11745E-01 -0.82638E-02 -0.41629E-02  0.61497E-02  0.41534E-02
  0.13634E-02 -0.20144E-02 -0.54793E-02 -0.85507E-02 -0.11125E-01 -0.13509E-01
 -0.16138E-01 -0.19306E-01 -0.23135E-01 -0.27666E-01 -0.32895E-01 -0.38751E-01
 -0.45073E-01 -0.51487E-01 -0.57179E-01 -0.60914E-01 -0.61714E-01 -0.59860E-01
 -0.57199E-01 -0.56040E-01 -0.57389E-01 -0.60103E-01 -0.61803E-01 -0.60666E-01
 -0.56501E-01 -0.50402E-01 -0.43692E-01 -0.37221E-01 -0.31353E-01 -0.26222E-01
 -0.21874E-01 -0.18299E-01 -0.15460E-01 -0.13251E-01 -0.11395E-01 -0.94304E-02
 -0.69388E-02 -0.38656E-02  0.32393E-02  0.20577E-02  0.43391E-03 -0.15404E-02
 -0.35727E-02 -0.53549E-02 -0.68027E-02 -0.81000E-02 -0.95250E-02 -0.11268E-01
 -0.13395E-01 -0.15904E-01 -0.18771E-01 -0.21949E-01 -0.25360E-01 -0.28793E-01
 -0.31748E-01 -0.33475E-01 -0.33409E-01 -0.31796E-01 -0.29840E-01 -0.28987E-01
 -0.29845E-01 -0.31684E-01 -0.33020E-01 -0.32714E-01 -0.30623E-01 -0.27390E-01
 -0.23792E-01 -0.20320E-01 -0.17165E-01 -0.14390E-01 -0.12021E-01 -0.10076E-01
 -0.85506E-02 -0.73943E-02 -0.64395E-02 -0.54104E-02 -0.40671E-02 -0.23855E-02
  0.50219E-03  0.31788E-03  0.98293E-04 -0.20023E-03 -0.56983E-03 -0.95438E-03
 -0.13027E-02 -0.16067E-02 -0.18897E-02 -0.21743E-02 -0.24650E-02 -0.27505E-02
 -0.30108E-02 -0.32258E-02 -0.33825E-02 -0.34793E-02 -0.35238E-02 -0.35332E-02
 -0.35346E-02 -0.35491E-02 -0.35634E-02 -0.35208E-02 -0.33580E-02 -0.30633E-02
 -0.27001E-02 -0.23668E-02 -0.21295E-02 -0.19856E-02 -0.18818E-02 -0.17627E-02
 -0.16041E-02 -0.14134E-02 -0.12090E-02 -0.10041E-02 -0.80511E-03 -0.61633E-03
 -0.44410E-03 -0.29636E-03 -0.17898E-03 -0.89543E-04 -0.22704E-02 -0.14318E-02
 -0.21026E-03  0.12095E-02  0.25391E-02  0.35742E-02  0.43332E-02  0.50244E-02
  0.58871E-02  0.70695E-02  0.86264E-02  0.10577E-01  0.12934E-01  0.15699E-01
  0.18825E-01  0.22108E-01  0.25033E-01  0.26806E-01  0.26805E-01  0.25231E-01
  0.23302E-01  0.22554E-01  0.23692E-01  0.26003E-01  0.27901E-01  0.28099E-01
  0.26362E-01  0.23350E-01  0.19938E-01  0.16703E-01  0.13871E-01  0.11481E-01
  0.95234E-02  0.79887E-02  0.68628E-02  0.60806E-02  0.54580E-02  0.47044E-02
  0.35791E-02  0.20779E-02 -0.52473E-02 -0.35262E-02 -0.10454E-02  0.18845E-02
  0.47422E-02  0.71290E-02  0.90421E-02  0.10831E-01  0.12910E-01  0.15541E-01
  0.18831E-01  0.22837E-01  0.27589E-01  0.33072E-01  0.39173E-01  0.45540E-01
  0.51340E-01  0.55281E-01  0.56313E-01  0.54662E-01  0.52155E-01  0.51128E-01
  0.52621E-01  0.55495E-01  0.57340E-01  0.56301E-01  0.52194E-01  0.46158E-01
  0.39580E-01  0.33348E-01  0.27820E-01  0.23088E-01  0.19157E-01  0.15998E-01
  0.13558E-01  0.11715E-01  0.10165E-01  0.84326E-02  0.61258E-02  0.32429E-02
 -0.81343E-02 -0.57835E-02 -0.24028E-02  0.16182E-02  0.56447E-02  0.91959E-02
  0.12258E-01  0.15221E-01  0.18540E-01  0.22505E-01  0.27273E-01  0.32973E-01
  0.39692E-01  0.47397E-01  0.55897E-01  0.64756E-01  0.73062E-01  0.79417E-01
  0.82596E-01  0.82625E-01  0.81172E-01  0.80479E-01  0.81536E-01  0.83202E-01
  0.83161E-01  0.79765E-01  0.73083E-01  0.64455E-01  0.55364E-01  0.46755E-01
  0.39055E-01  0.32424E-01  0.26882E-01  0.22341E-01  0.18676E-01  0.15716E-01
  0.13124E-01  0.10389E-01  0.70784E-02  0.31967E-02 -0.10295E-01 -0.75917E-02
 -0.37423E-02  0.85380E-03  0.55817E-02  0.99855E-02  0.14042E-01  0.18082E-01
  0.22488E-01  0.27519E-01  0.33373E-01  0.40272E-01  0.48379E-01  0.57654E-01
  0.67830E-01  0.78414E-01  0.88565E-01  0.97048E-01  0.10270E+00  0.10525E+00
  0.10573E+00  0.10570E+00  0.10583E+00  0.10530E+00  0.10250E+00  0.96464E-01
  0.87559E-01  0.77058E-01  0.66260E-01  0.56022E-01  0.46813E-01  0.38867E-01
  0.32199E-01  0.26645E-01  0.21988E-01  0.18022E-01  0.14451E-01  0.10842E-01
  0.68273E-02  0.24141E-02 -0.11265E-01 -0.84330E-02 -0.44898E-02  0.22061E-03
  0.51973E-02  0.10071E-01  0.14799E-01  0.19599E-01  0.24738E-01  0.30426E-01
  0.36893E-01  0.44435E-01  0.53277E-01  0.63395E-01  0.74478E-01  0.85995E-01
  0.97186E-01  0.10704E+00  0.11457E+00  0.11930E+00  0.12156E+00  0.12212E+00
  0.12131E+00  0.11870E+00  0.11352E+00  0.10548E+00  0.95154E-01  0.83618E-01
  0.71920E-01  0.60822E-01  0.50828E-01  0.42208E-01  0.34954E-01  0.28831E-01
  0.23557E-01  0.18904E-01  0.14637E-01  0.10450E-01  0.60881E-02  0.15722E-02
 -0.11071E-01 -0.82521E-02 -0.44527E-02  0.69661E-04  0.49547E-02  0.99250E-02
  0.14910E-01  0.20018E-01  0.25421E-01  0.31306E-01  0.37917E-01  0.45563E-01
  0.54492E-01  0.64716E-01  0.75947E-01  0.87654E-01  0.99123E-01  0.10950E+00
  0.11793E+00  0.12386E+00  0.12718E+00  0.12806E+00  0.12660E+00  0.12268E+00
  0.11611E+00  0.10708E+00  0.96216E-01  0.84416E-01  0.72561E-01  0.61355E-01
  0.51298E-01  0.42630E-01  0.35303E-01  0.29061E-01  0.23606E-01  0.18706E-01
  0.14163E-01  0.97752E-02  0.54018E-02  0.10848E-02 -0.10076E-01 -0.73485E-02
 -0.38004E-02  0.38672E-03  0.49654E-02  0.97248E-02  0.14570E-01  0.19539E-01
  0.24761E-01  0.30425E-01  0.36767E-01  0.44052E-01  0.52497E-01  0.62153E-01
  0.72819E-01  0.84035E-01  0.95129E-01  0.10532E+00  0.11383E+00  0.12009E+00
  0.12375E+00  0.12471E+00  0.12294E+00  0.11847E+00  0.11145E+00  0.10227E+00
  0.91579E-01  0.80169E-01  0.68833E-01  0.58220E-01  0.48750E-01  0.40578E-01
  0.33621E-01  0.27656E-01  0.22428E-01  0.17708E-01  0.13307E-01  0.90772E-02
  0.49567E-02  0.10101E-02 -0.86321E-02 -0.60461E-02 -0.27913E-02  0.99356E-03
  0.51280E-02  0.94434E-02  0.13840E-01  0.18328E-01  0.23030E-01  0.28140E-01
  0.33872E-01  0.40421E-01  0.47943E-01  0.56511E-01  0.66028E-01  0.76158E-01
  0.86320E-01  0.95791E-01  0.10385E+00  0.10988E+00  0.11347E+00  0.11437E+00
  0.11251E+00  0.10800E+00  0.10113E+00  0.92377E-01  0.82396E-01  0.71929E-01
  0.61696E-01  0.52240E-01  0.43852E-01  0.36590E-01  0.30362E-01  0.25005E-01
  0.20325E-01  0.16111E-01  0.12173E-01  0.83821E-02  0.47122E-02  0.12350E-02
 -0.69350E-02 -0.45319E-02 -0.16001E-02  0.17333E-02  0.53193E-02  0.90225E-02
  0.12762E-01  0.16550E-01  0.20504E-01  0.24808E-01  0.29648E-01  0.35169E-01
  0.41481E-01  0.48654E-01  0.56660E-01  0.65284E-01  0.74078E-01  0.82421E-01
  0.89642E-01  0.95134E-01  0.98422E-01  0.99204E-01  0.97394E-01  0.93139E-01
  0.86794E-01  0.78880E-01  0.70039E-01  0.60951E-01  0.52224E-01  0.44265E-01
  0.37248E-01  0.31171E-01  0.25952E-01  0.21472E-01  0.17578E-01  0.14086E-01
  0.10817E-01  0.76560E-02  0.45809E-02  0.16457E-02 -0.51112E-02 -0.29230E-02
 -0.33877E-03  0.25055E-02  0.54722E-02  0.84574E-02  0.11414E-01  0.14369E-01
  0.17422E-01  0.20731E-01  0.24460E-01  0.28745E-01  0.33683E-01  0.39334E-01
  0.45692E-01  0.52620E-01  0.59799E-01  0.66741E-01  0.72871E-01  0.77612E-01
  0.80468E-01  0.81111E-01  0.79445E-01  0.75634E-01  0.70065E-01  0.63271E-01
  0.55854E-01  0.48393E-01  0.41355E-01  0.35022E-01  0.29500E-01  0.24771E-01
  0.20762E-01  0.17363E-01  0.14429E-01  0.11797E-01  0.93195E-02  0.69020E-02
  0.45093E-02  0.21630E-02 -0.33176E-02 -0.13572E-02  0.87977E-03  0.32326E-02
  0.55602E-02  0.77829E-02  0.98898E-02  0.11925E-01  0.13975E-01  0.16169E-01
  0.18656E-01  0.21582E-01  0.25056E-01  0.29143E-01  0.33841E-01  0.39060E-01
  0.44584E-01  0.50065E-01  0.55040E-01  0.58986E-01  0.61400E-01  0.61922E-01
  0.60436E-01  0.57121E-01  0.52396E-01  0.46800E-01  0.40878E-01  0.35089E-01
  0.29762E-01  0.25080E-01  0.21107E-01  0.17822E-01  0.15142E-01  0.12943E-01
  0.11074E-01  0.93913E-02  0.77795E-02  0.61568E-02  0.44723E-02  0.27168E-02
 -0.17315E-02  0.17053E-04  0.19477E-02  0.38535E-02  0.55709E-02  0.70328E-02
  0.82604E-02  0.93239E-02  0.10317E-01  0.11356E-01  0.12574E-01  0.14110E-01
  0.16085E-01  0.18583E-01  0.21636E-01  0.25210E-01  0.29193E-01  0.33367E-01
  0.37379E-01  0.40739E-01  0.42888E-01  0.43368E-01  0.42016E-01  0.39050E-01
  0.34977E-01  0.30398E-01  0.25828E-01  0.21614E-01  0.17952E-01  0.14925E-01
  0.12539E-01  0.10736E-01  0.94119E-02  0.84344E-02  0.76648E-02  0.69778E-02
  0.62689E-02  0.54502E-02  0.44521E-02  0.32448E-02 -0.49219E-03  0.10942E-02
  0.28006E-02  0.43384E-02  0.54996E-02  0.62242E-02  0.65708E-02  0.66508E-02
  0.65880E-02  0.65043E-02  0.65123E-02  0.67165E-02  0.72256E-02  0.81544E-02
  0.96030E-02  0.11634E-01  0.14262E-01  0.17415E-01  0.20843E-01  0.24026E-01
  0.26235E-01  0.26803E-01  0.25468E-01  0.22539E-01  0.18732E-01  0.14818E-01
  0.11336E-01  0.85315E-02  0.64485E-02  0.50435E-02  0.42263E-02  0.38724E-02
  0.38473E-02  0.40334E-02  0.43287E-02  0.46290E-02  0.48194E-02  0.47856E-02
  0.44315E-02  0.37078E-02  0.34950E-03  0.18444E-02  0.34245E-02  0.46782E-02
  0.53363E-02  0.53562E-02  0.48524E-02  0.39922E-02  0.29384E-02  0.18229E-02
  0.73204E-03 -0.27407E-03 -0.11083E-02 -0.16270E-02 -0.16558E-02 -0.10203E-02
  0.44925E-03  0.28606E-02  0.60695E-02  0.94727E-02  0.12056E-01  0.12824E-01
  0.11379E-01  0.81789E-02  0.42670E-02  0.68904E-03 -0.19473E-02 -0.35171E-02
 -0.41574E-02 -0.40655E-02 -0.34374E-02 -0.24660E-02 -0.13111E-02 -0.68587E-04
  0.12010E-02  0.24139E-02  0.34432E-02  0.41441E-02  0.43849E-02  0.40814E-02
  0.88221E-03  0.23291E-02  0.38358E-02  0.48470E-02  0.50344E-02  0.43967E-02
  0.31270E-02  0.14497E-02 -0.45202E-03 -0.24536E-02 -0.44943E-02 -0.65412E-02
 -0.85152E-02 -0.10255E-01 -0.11544E-01 -0.12121E-01 -0.11660E-01 -0.98517E-02
 -0.67195E-02 -0.29635E-02  0.84864E-04  0.10799E-02 -0.51949E-03 -0.40831E-02
 -0.82101E-02 -0.11560E-01 -0.13461E-01 -0.13926E-01 -0.13298E-01 -0.11924E-01
 -0.10077E-01 -0.79824E-02 -0.58129E-02 -0.36585E-02 -0.15602E-02  0.41614E-03
  0.21504E-02  0.34880E-02  0.42617E-02  0.43307E-02  0.13390E-02  0.26923E-02
  0.40655E-02  0.47882E-02  0.45074E-02  0.32895E-02  0.14125E-02 -0.86556E-03
 -0.33833E-02 -0.60562E-02 -0.88464E-02 -0.11716E-01 -0.14572E-01 -0.17249E-01
 -0.19536E-01 -0.21138E-01 -0.21605E-01 -0.20446E-01 -0.17566E-01 -0.13718E-01
 -0.10444E-01 -0.93186E-02 -0.10966E-01 -0.14637E-01 -0.18701E-01 -0.21634E-01
 -0.22747E-01 -0.22190E-01 -0.20485E-01 -0.18092E-01 -0.15311E-01 -0.12352E-01
 -0.93847E-02 -0.65139E-02 -0.37931E-02 -0.12744E-02  0.95802E-03  0.27770E-02
  0.39967E-02  0.44131E-02  0.19634E-02  0.30859E-02  0.41567E-02  0.44727E-02
  0.37159E-02  0.20378E-02 -0.22157E-03 -0.28157E-02 -0.56544E-02 -0.87230E-02
 -0.12002E-01 -0.15425E-01 -0.18863E-01 -0.22166E-01 -0.25161E-01 -0.27564E-01
 -0.28864E-01 -0.28476E-01 -0.26232E-01 -0.22857E-01 -0.19868E-01 -0.18800E-01
 -0.20246E-01 -0.23470E-01 -0.26889E-01 -0.29033E-01 -0.29267E-01 -0.27818E-01
 -0.25287E-01 -0.22185E-01 -0.18791E-01 -0.15272E-01 -0.11778E-01 -0.84440E-02
 -0.53559E-02 -0.25572E-02 -0.74044E-04  0.20296E-02  0.35815E-02  0.43295E-02
  0.27799E-02  0.35449E-02  0.41626E-02  0.39924E-02  0.28059E-02  0.83389E-03
 -0.15630E-02 -0.41949E-02 -0.70704E-02 -0.10252E-01 -0.13732E-01 -0.17400E-01
 -0.21095E-01 -0.24675E-01 -0.28015E-01 -0.30864E-01 -0.32739E-01 -0.33101E-01
 -0.31815E-01 -0.29497E-01 -0.27357E-01 -0.26554E-01 -0.27512E-01 -0.29676E-01
 -0.31858E-01 -0.32922E-01 -0.32350E-01 -0.30322E-01 -0.27366E-01 -0.23946E-01
 -0.20302E-01 -0.16556E-01 -0.12841E-01 -0.93227E-02 -0.61273E-02 -0.32943E-02
 -0.78859E-03  0.14032E-02  0.31487E-02  0.41762E-02 -0.42721E-02 -0.46212E-02
 -0.48895E-02 -0.46994E-02 -0.38880E-02 -0.25659E-02 -0.93198E-03  0.91968E-03
  0.30258E-02  0.54379E-02  0.80941E-02  0.10787E-01  0.13238E-01  0.15186E-01
  0.16404E-01  0.16728E-01  0.16228E-01  0.15380E-01  0.14904E-01  0.15188E-01
  0.15881E-01  0.16214E-01  0.15820E-01  0.15147E-01  0.14980E-01  0.15611E-01
  0.16586E-01  0.17162E-01  0.16878E-01  0.15694E-01  0.13784E-01  0.11366E-01
  0.86868E-02  0.60191E-02  0.35751E-02  0.14203E-02 -0.50320E-03 -0.22336E-02
 -0.36495E-02 -0.45023E-02 -0.49516E-02 -0.51695E-02 -0.52424E-02 -0.47457E-02
 -0.35411E-02 -0.18164E-02  0.17086E-03  0.23316E-02  0.47513E-02  0.75262E-02
  0.10611E-01  0.13798E-01  0.16815E-01  0.19427E-01  0.21444E-01  0.22673E-01
  0.23003E-01  0.22591E-01  0.21898E-01  0.21388E-01  0.21189E-01  0.21129E-01
  0.21109E-01  0.21305E-01  0.21898E-01  0.22709E-01  0.23214E-01  0.22933E-01
  0.21729E-01  0.19742E-01  0.17174E-01  0.14213E-01  0.11078E-01  0.80305E-02
  0.52771E-02  0.28610E-02  0.68120E-03 -0.13450E-02 -0.31032E-02 -0.42968E-02
 -0.51631E-02 -0.55803E-02 -0.58065E-02 -0.53074E-02 -0.39179E-02 -0.18812E-02
  0.46710E-03  0.29873E-02  0.57499E-02  0.88579E-02  0.12287E-01  0.15859E-01
  0.19338E-01  0.22532E-01  0.25294E-01  0.27425E-01  0.28656E-01  0.28818E-01
  0.28067E-01  0.26887E-01  0.25861E-01  0.25425E-01  0.25753E-01  0.26726E-01
  0.27919E-01  0.28713E-01  0.28591E-01  0.27388E-01  0.25284E-01  0.22563E-01
  0.19428E-01  0.16024E-01  0.12537E-01  0.91932E-02  0.61618E-02  0.34581E-02
  0.97440E-03 -0.13518E-02 -0.33544E-02 -0.46681E-02 -0.50010E-02 -0.58127E-02
 -0.64086E-02 -0.61366E-02 -0.47767E-02 -0.25890E-02  0.27374E-04  0.28555E-02
  0.58996E-02  0.92305E-02  0.12841E-01  0.16606E-01  0.20340E-01  0.23883E-01
  0.27111E-01  0.29831E-01  0.31692E-01  0.32311E-01  0.31597E-01  0.30004E-01
  0.28418E-01  0.27712E-01  0.28260E-01  0.29720E-01  0.31231E-01  0.31902E-01
  0.31270E-01  0.29422E-01  0.26740E-01  0.23572E-01  0.20106E-01  0.16464E-01
  0.12809E-01  0.93184E-02  0.61063E-02  0.31670E-02  0.42526E-03 -0.21106E-02
 -0.41964E-02 -0.54116E-02 -0.46182E-02 -0.57872E-02 -0.67359E-02 -0.67611E-02
 -0.55999E-02 -0.34846E-02 -0.82266E-03  0.21136E-02  0.52466E-02  0.85887E-02
  0.12138E-01  0.15827E-01  0.19524E-01  0.23079E-01  0.26358E-01  0.29168E-01
  0.31157E-01  0.31878E-01  0.31133E-01  0.29333E-01  0.27474E-01  0.26625E-01
  0.27251E-01  0.28905E-01  0.30538E-01  0.31166E-01  0.30387E-01  0.28396E-01
  0.25628E-01  0.22421E-01  0.18955E-01  0.15364E-01  0.11797E-01  0.83816E-02
  0.51773E-02  0.21756E-02 -0.63833E-03 -0.31726E-02 -0.51294E-02 -0.60879E-02
 -0.40915E-02 -0.54245E-02 -0.65533E-02 -0.68275E-02 -0.59789E-02 -0.41757E-02
 -0.17644E-02  0.97936E-03  0.39154E-02  0.69924E-02  0.10198E-01  0.13508E-01
  0.16836E-01  0.20035E-01  0.22937E-01  0.25342E-01  0.26944E-01  0.27361E-01
  0.26424E-01  0.24517E-01  0.22599E-01  0.21715E-01  0.22322E-01  0.23977E-01
  0.25656E-01  0.26424E-01  0.25911E-01  0.24285E-01  0.21909E-01  0.19075E-01
  0.15969E-01  0.12750E-01  0.95605E-02  0.64819E-02  0.35368E-02  0.73551E-03
 -0.18701E-02 -0.41275E-02 -0.57402E-02 -0.63537E-02 -0.33849E-02 -0.46980E-02
 -0.58435E-02 -0.63038E-02 -0.58415E-02 -0.45452E-02 -0.26581E-02 -0.41095E-03
  0.20312E-02  0.45695E-02  0.71680E-02  0.98161E-02  0.12453E-01  0.14937E-01
  0.17083E-01  0.18695E-01  0.19537E-01  0.19360E-01  0.18099E-01  0.16129E-01
  0.14280E-01  0.13436E-01  0.13978E-01  0.15534E-01  0.17243E-01  0.18302E-01
  0.18353E-01  0.17457E-01  0.15852E-01  0.13759E-01  0.11362E-01  0.88293E-02
  0.62860E-02  0.37886E-02  0.13552E-02 -0.97139E-03 -0.30891E-02 -0.48245E-02
 -0.59305E-02 -0.61589E-02 -0.24094E-02 -0.36393E-02 -0.47561E-02 -0.53956E-02
 -0.53678E-02 -0.46934E-02 -0.35132E-02 -0.19935E-02 -0.28616E-03  0.14915E-02
  0.32745E-02  0.50287E-02  0.66906E-02  0.81336E-02  0.91977E-02  0.97281E-02
  0.95797E-02  0.86440E-02  0.69742E-02  0.49383E-02  0.31989E-02  0.24238E-02
  0.28962E-02  0.43391E-02  0.61038E-02  0.75547E-02  0.83421E-02  0.84134E-02
  0.78679E-02  0.68407E-02  0.54722E-02  0.38988E-02  0.22238E-02  0.50531E-03
 -0.12092E-02 -0.28402E-02 -0.42648E-02 -0.53249E-02 -0.58412E-02 -0.56682E-02
 -0.11041E-02 -0.23012E-02 -0.34553E-02 -0.43266E-02 -0.47688E-02 -0.47617E-02
 -0.43751E-02 -0.37168E-02 -0.29042E-02 -0.20476E-02 -0.12395E-02 -0.55972E-03
 -0.95857E-04  0.49379E-04 -0.22462E-03 -0.99545E-03 -0.23073E-02 -0.41419E-02
 -0.63448E-02 -0.85585E-02 -0.10268E-01 -0.10999E-01 -0.10557E-01 -0.91313E-02
 -0.71792E-02 -0.51914E-02 -0.35078E-02 -0.22814E-02 -0.15389E-02 -0.12460E-02
 -0.13392E-02 -0.17416E-02 -0.23749E-02 -0.31595E-02 -0.40026E-02 -0.47944E-02
 -0.54147E-02 -0.57384E-02 -0.56452E-02 -0.50601E-02  0.52089E-03 -0.73253E-03
 -0.20314E-02 -0.32135E-02 -0.41622E-02 -0.48384E-02 -0.52711E-02 -0.55272E-02
 -0.56909E-02 -0.58606E-02 -0.61492E-02 -0.66753E-02 -0.75463E-02 -0.88417E-02
 -0.10604E-01 -0.12834E-01 -0.15481E-01 -0.18412E-01 -0.21379E-01 -0.24013E-01
 -0.25887E-01 -0.26648E-01 -0.26155E-01 -0.24540E-01 -0.22139E-01 -0.19361E-01
 -0.16561E-01 -0.13990E-01 -0.11791E-01 -0.10028E-01 -0.87116E-02 -0.78168E-02
 -0.72838E-02 -0.70159E-02 -0.68879E-02 -0.67711E-02 -0.65523E-02 -0.61338E-02
 -0.54345E-02 -0.44189E-02  0.23782E-02  0.10011E-02 -0.52988E-03 -0.20945E-02
 -0.35914E-02 -0.49665E-02 -0.62185E-02 -0.73864E-02 -0.85403E-02 -0.97819E-02
 -0.11238E-01 -0.13038E-01 -0.15289E-01 -0.18056E-01 -0.21359E-01 -0.25152E-01
 -0.29299E-01 -0.33550E-01 -0.37552E-01 -0.40886E-01 -0.43143E-01 -0.44015E-01
 -0.43383E-01 -0.41349E-01 -0.38206E-01 -0.34351E-01 -0.30196E-01 -0.26100E-01
 -0.22327E-01 -0.19033E-01 -0.16274E-01 -0.14041E-01 -0.12280E-01 -0.10895E-01
 -0.97570E-02 -0.87273E-02 -0.76856E-02 -0.65407E-02 -0.52353E-02 -0.37603E-02
  0.43155E-02  0.27884E-02  0.98315E-03 -0.10046E-02 -0.30774E-02 -0.51596E-02
 -0.72141E-02 -0.92564E-02 -0.11361E-01 -0.13651E-01 -0.16264E-01 -0.19326E-01
 -0.22932E-01 -0.27152E-01 -0.32010E-01 -0.37429E-01 -0.43185E-01 -0.48902E-01
 -0.54108E-01 -0.58313E-01 -0.61086E-01 -0.62118E-01 -0.61288E-01 -0.58695E-01
 -0.54632E-01 -0.49526E-01 -0.43863E-01 -0.38122E-01 -0.32698E-01 -0.27842E-01
 -0.23645E-01 -0.20091E-01 -0.17116E-01 -0.14631E-01 -0.12515E-01 -0.10619E-01
 -0.87996E-02 -0.69566E-02 -0.50483E-02 -0.30929E-02  0.61578E-02  0.44905E-02
  0.24137E-02  0.58834E-05 -0.26314E-02 -0.53933E-02 -0.82045E-02 -0.11059E-01
 -0.14038E-01 -0.17285E-01 -0.20957E-01 -0.25184E-01 -0.30077E-01 -0.35720E-01
 -0.42131E-01 -0.49183E-01 -0.56546E-01 -0.63723E-01 -0.70141E-01 -0.75243E-01
 -0.78562E-01 -0.79767E-01 -0.78727E-01 -0.75544E-01 -0.70532E-01 -0.64158E-01
 -0.56983E-01 -0.49590E-01 -0.42499E-01 -0.36067E-01 -0.30445E-01 -0.25626E-01
 -0.21529E-01 -0.18047E-01 -0.15047E-01 -0.12364E-01 -0.98318E-02 -0.73411E-02
 -0.48626E-02 -0.24392E-02  0.77631E-02  0.59966E-02  0.36849E-02  0.89539E-03
 -0.22524E-02 -0.56186E-02 -0.90968E-02 -0.12667E-01 -0.16409E-01 -0.20470E-01
 -0.25025E-01 -0.30250E-01 -0.36303E-01 -0.43286E-01 -0.51171E-01 -0.59746E-01
 -0.68588E-01 -0.77116E-01 -0.84682E-01 -0.90658E-01 -0.94522E-01 -0.95909E-01
 -0.94674E-01 -0.90915E-01 -0.84974E-01 -0.77378E-01 -0.68773E-01 -0.59836E-01
 -0.51179E-01 -0.43248E-01 -0.36280E-01 -0.30311E-01 -0.25251E-01 -0.20941E-01
 -0.17201E-01 -0.13841E-01 -0.10692E-01 -0.76437E-02 -0.46698E-02 -0.18267E-02
  0.90191E-02  0.72274E-02  0.47445E-02  0.16308E-02 -0.19524E-02 -0.58111E-02
 -0.98131E-02 -0.13941E-01 -0.18272E-01 -0.22946E-01 -0.28157E-01 -0.34145E-01
 -0.41134E-01 -0.49229E-01 -0.58340E-01 -0.68183E-01 -0.78296E-01 -0.88051E-01
 -0.96704E-01 -0.10351E+00 -0.10789E+00 -0.10945E+00 -0.10806E+00 -0.10379E+00
 -0.96969E-01 -0.88193E-01 -0.78248E-01 -0.67942E-01 -0.57954E-01 -0.48772E-01
 -0.40685E-01 -0.33789E-01 -0.27991E-01 -0.23073E-01 -0.18786E-01 -0.14921E-01
 -0.11314E-01 -0.78512E-02 -0.44892E-02 -0.12886E-02  0.97515E-02  0.80446E-02
  0.54943E-02  0.21414E-02 -0.17839E-02 -0.59938E-02 -0.10316E-01 -0.14751E-01
 -0.19402E-01 -0.24414E-01 -0.29996E-01 -0.36439E-01 -0.44010E-01 -0.52807E-01
 -0.62714E-01 -0.73450E-01 -0.84566E-01 -0.95353E-01 -0.10488E+00 -0.11224E+00
 -0.11685E+00 -0.11848E+00 -0.11707E+00 -0.11258E+00 -0.10518E+00 -0.95435E-01