       #
       # Generated by the Wannier90 code http://www.wannier.org
       # On  1Apr2018 at 06:55:25 
       #
CRYSTAL
PRIMVEC
   3.0715001   0.0000000   0.0000000
   0.0300198   3.0713534   0.0000000
   0.0300198   0.0297278   3.0712095
CONVVEC
   3.0715001   0.0000000   0.0000000
   0.0300198   3.0713534   0.0000000
   0.0300198   0.0297278   3.0712095
PRIMCOORD
     1  1
Sn      0.0000000   0.0000000   0.0000000


BEGIN_BLOCK_DATAGRID_3D
3D_field
BEGIN_DATAGRID_3D_UNKNOWN
    40    40    40
   -3.288117   -3.256135   -3.224770
   5.9894252   0.0000000   0.0000000
   0.0585386   5.9891391   0.0000000
   0.0585386   0.0579692   5.9888585
 -0.37033E-02 -0.47153E-02 -0.49407E-02 -0.45304E-02 -0.38243E-02 -0.30644E-02
 -0.22489E-02 -0.12119E-02  0.19855E-03  0.20077E-02  0.41088E-02  0.63124E-02
  0.84123E-02  0.10248E-01  0.11697E-01  0.12576E-01  0.12576E-01  0.11418E-01
  0.91604E-02  0.62921E-02  0.33896E-02  0.65595E-03 -0.21201E-02 -0.51046E-02
 -0.79985E-02 -0.10163E-01 -0.11135E-01 -0.10944E-01 -0.99559E-02 -0.85237E-02
 -0.68412E-02 -0.50340E-02 -0.32578E-02 -0.16886E-02 -0.46448E-03  0.36390E-03
  0.88472E-03  0.13307E-02  0.19461E-02  0.27569E-02 -0.42969E-02 -0.49782E-02
 -0.51911E-02 -0.50278E-02 -0.46403E-02 -0.41060E-02 -0.33900E-02 -0.24038E-02
 -0.10864E-02  0.55256E-03  0.24252E-02  0.43782E-02  0.62349E-02  0.78516E-02
  0.91150E-02  0.98497E-02  0.97733E-02  0.86673E-02  0.66730E-02  0.43421E-02
  0.22499E-02  0.51139E-03 -0.12399E-02 -0.33376E-02 -0.55985E-02 -0.74104E-02
 -0.82575E-02 -0.80861E-02 -0.71960E-02 -0.59104E-02 -0.44152E-02 -0.28267E-02
 -0.12814E-02  0.73497E-04  0.11335E-02  0.18689E-02  0.23403E-02  0.26913E-02
  0.30738E-02  0.35248E-02 -0.47357E-02 -0.50019E-02 -0.51863E-02 -0.53112E-02
 -0.53060E-02 -0.50556E-02 -0.44854E-02 -0.35966E-02 -0.24357E-02 -0.10583E-02
  0.46664E-03  0.20317E-02  0.35004E-02  0.47493E-02  0.56686E-02  0.60997E-02
  0.58248E-02  0.47437E-02  0.31223E-02  0.15758E-02  0.64287E-03  0.30543E-03
 -0.20287E-05 -0.83394E-03 -0.21886E-02 -0.35293E-02 -0.42842E-02 -0.42607E-02
 -0.36266E-02 -0.26384E-02 -0.14694E-02 -0.23105E-03  0.96482E-03  0.20116E-02
  0.28458E-02  0.34534E-02  0.38502E-02  0.40664E-02  0.41456E-02  0.41429E-02
 -0.45833E-02 -0.43650E-02 -0.44486E-02 -0.48096E-02 -0.51915E-02 -0.53074E-02
 -0.50313E-02 -0.44176E-02 -0.35887E-02 -0.26366E-02 -0.16200E-02 -0.60705E-03
  0.31205E-03  0.10453E-02  0.14952E-02  0.15243E-02  0.99310E-03 -0.57426E-04
 -0.12169E-02 -0.18057E-02 -0.13423E-02 -0.70188E-05  0.14064E-02  0.20913E-02
  0.18347E-02  0.10734E-02  0.43399E-03  0.26850E-03  0.56577E-03  0.11502E-02
  0.18664E-02  0.26146E-02  0.33184E-02  0.39175E-02  0.43828E-02  0.47053E-02
  0.48585E-02  0.47857E-02  0.44585E-02  0.39707E-02 -0.36883E-02 -0.29769E-02
 -0.28744E-02 -0.33504E-02 -0.40500E-02 -0.45806E-02 -0.47623E-02 -0.46471E-02
 -0.43731E-02 -0.40433E-02 -0.37115E-02 -0.34178E-02 -0.32022E-02 -0.31040E-02
 -0.31853E-02 -0.35491E-02 -0.42636E-02 -0.51708E-02 -0.57522E-02 -0.52997E-02
 -0.34088E-02 -0.41291E-03  0.27015E-02  0.49191E-02  0.58367E-02  0.57813E-02
  0.53939E-02  0.51390E-02  0.51315E-02  0.52729E-02  0.54417E-02  0.55717E-02
  0.56375E-02  0.56273E-02  0.55369E-02  0.53563E-02  0.50389E-02  0.44983E-02
  0.36966E-02  0.27814E-02 -0.22136E-02 -0.10728E-02 -0.72588E-03 -0.11720E-02
 -0.20585E-02 -0.29750E-02 -0.37086E-02 -0.42677E-02 -0.47487E-02 -0.52273E-02
 -0.57421E-02 -0.63079E-02 -0.69135E-02 -0.75299E-02 -0.81538E-02 -0.88274E-02
 -0.95506E-02 -0.10101E-01 -0.99414E-02 -0.84200E-02 -0.52417E-02 -0.84878E-03
  0.36858E-02  0.72568E-02  0.93413E-02  0.10142E-01  0.10228E-01  0.10074E-01
  0.98603E-02  0.95614E-02  0.91214E-02  0.85367E-02  0.78430E-02  0.70747E-02
  0.62492E-02  0.53654E-02  0.43920E-02  0.32732E-02  0.20136E-02  0.80723E-03
 -0.40378E-03  0.10780E-02  0.16971E-02  0.14052E-02  0.47428E-03 -0.74724E-03
 -0.20498E-02 -0.33860E-02 -0.47709E-02 -0.62118E-02 -0.77036E-02 -0.92278E-02
 -0.10728E-01 -0.12110E-01 -0.13284E-01 -0.14196E-01 -0.14765E-01 -0.14744E-01
 -0.13673E-01 -0.11058E-01 -0.67523E-02 -0.12594E-02  0.43822E-02  0.91063E-02
  0.12340E-01  0.14137E-01  0.14898E-01  0.15008E-01  0.14660E-01  0.13918E-01
  0.12826E-01  0.11464E-01  0.99252E-02  0.82819E-02  0.65791E-02  0.48485E-02
  0.31124E-02  0.13896E-02 -0.24905E-03 -0.15903E-02  0.16294E-02  0.34072E-02
  0.43169E-02  0.42516E-02  0.33642E-02  0.18958E-02  0.25101E-04 -0.21474E-02
 -0.45381E-02 -0.70571E-02 -0.96280E-02 -0.12185E-01 -0.14633E-01 -0.16823E-01
 -0.18578E-01 -0.19726E-01 -0.20077E-01 -0.19374E-01 -0.17281E-01 -0.13519E-01
 -0.81250E-02 -0.16377E-02  0.49981E-02  0.10818E-01  0.15225E-01  0.18100E-01
  0.19627E-01  0.20050E-01  0.19570E-01  0.18355E-01  0.16571E-01  0.14382E-01
  0.11930E-01  0.93208E-02  0.66395E-02  0.39736E-02  0.14250E-02 -0.89426E-03
 -0.28453E-02 -0.42214E-02  0.39272E-02  0.60301E-02  0.72529E-02  0.74240E-02
  0.65737E-02  0.48360E-02  0.23600E-02 -0.69932E-03 -0.41614E-02 -0.78397E-02
 -0.11579E-01 -0.15253E-01 -0.18715E-01 -0.21764E-01 -0.24143E-01 -0.25564E-01
 -0.25730E-01 -0.24356E-01 -0.21217E-01 -0.16240E-01 -0.96403E-02 -0.20102E-02
  0.57708E-02  0.12806E-01  0.18452E-01  0.22418E-01  0.24682E-01  0.25377E-01
  0.24725E-01  0.22999E-01  0.20476E-01  0.17395E-01  0.13946E-01  0.10287E-01
  0.65555E-02  0.29041E-02 -0.48699E-03 -0.34173E-02 -0.56853E-02 -0.70954E-02
  0.65574E-02  0.90678E-02  0.10632E-01  0.11005E-01  0.10111E-01  0.80080E-02
  0.48432E-02  0.83709E-03 -0.37468E-02 -0.86515E-02 -0.13658E-01 -0.18562E-01
 -0.23137E-01 -0.27106E-01 -0.30143E-01 -0.31877E-01 -0.31921E-01 -0.29949E-01
 -0.25790E-01 -0.19513E-01 -0.11488E-01 -0.23998E-02  0.68483E-02  0.15332E-01
  0.22315E-01  0.27351E-01  0.30279E-01  0.31180E-01  0.30316E-01  0.28047E-01
  0.24727E-01  0.20660E-01  0.16104E-01  0.11297E-01  0.64498E-02  0.17728E-02
 -0.24988E-02 -0.60954E-02 -0.87548E-02 -0.10275E-01  0.94847E-02  0.12500E-01
  0.14442E-01  0.14983E-01  0.13957E-01  0.11379E-01  0.74263E-02  0.23949E-02
 -0.33830E-02 -0.96043E-02 -0.15995E-01 -0.22264E-01 -0.28070E-01 -0.33043E-01
 -0.36791E-01 -0.38882E-01 -0.38861E-01 -0.36344E-01 -0.31159E-01 -0.23454E-01
 -0.13730E-01 -0.28063E-02  0.82901E-02  0.18510E-01  0.26975E-01  0.33102E-01
  0.36653E-01  0.37707E-01  0.36585E-01  0.33716E-01  0.29513E-01  0.24344E-01
  0.18556E-01  0.12486E-01  0.64360E-02  0.66639E-03 -0.45495E-02 -0.88906E-02
 -0.12035E-01 -0.13753E-01  0.12536E-01  0.16148E-01  0.18522E-01  0.19232E-01
  0.18033E-01  0.14915E-01  0.10094E-01  0.39400E-02 -0.31513E-02 -0.10823E-01
 -0.18734E-01 -0.26493E-01 -0.33656E-01 -0.39761E-01 -0.44337E-01 -0.46876E-01
 -0.46836E-01 -0.43757E-01 -0.37444E-01 -0.28100E-01 -0.16357E-01 -0.32101E-02
  0.10123E-01  0.22401E-01  0.32566E-01  0.39900E-01  0.44102E-01  0.45271E-01
  0.43799E-01  0.40203E-01  0.34983E-01  0.28586E-01  0.21447E-01  0.13995E-01
  0.66196E-02 -0.35463E-03 -0.66060E-02 -0.11766E-01 -0.15458E-01 -0.17418E-01
  0.15466E-01  0.19767E-01  0.22648E-01  0.23568E-01  0.22203E-01  0.18523E-01
  0.12780E-01  0.53997E-02 -0.31525E-02 -0.12431E-01 -0.21991E-01 -0.31353E-01
 -0.40005E-01 -0.47413E-01 -0.53000E-01 -0.56111E-01 -0.56068E-01 -0.52330E-01
 -0.44695E-01 -0.33437E-01 -0.19333E-01 -0.35806E-02  0.12372E-01  0.27048E-01
  0.39183E-01  0.47912E-01  0.52858E-01  0.54124E-01  0.52178E-01  0.47670E-01
  0.41248E-01  0.33485E-01  0.24890E-01  0.15946E-01  0.71098E-02 -0.12025E-02
 -0.85890E-02 -0.14626E-01 -0.18897E-01 -0.21109E-01  0.18036E-01  0.23145E-01
  0.26641E-01  0.27827E-01  0.26300E-01  0.22031E-01  0.15315E-01  0.66199E-02
 -0.35164E-02 -0.14529E-01 -0.25844E-01 -0.36909E-01 -0.47189E-01 -0.56081E-01
 -0.62841E-01 -0.66599E-01 -0.66512E-01 -0.61977E-01 -0.52814E-01 -0.39382E-01
 -0.22602E-01 -0.38862E-02  0.15046E-01  0.32441E-01  0.46802E-01  0.57106E-01
  0.62902E-01  0.64281E-01  0.61777E-01  0.56189E-01  0.48381E-01  0.39104E-01
  0.28950E-01  0.18423E-01  0.80227E-02 -0.17327E-02 -0.10336E-01 -0.17306E-01
 -0.22200E-01 -0.24687E-01  0.20038E-01  0.26117E-01  0.30363E-01  0.31864E-01
  0.30140E-01  0.25213E-01  0.17457E-01  0.73944E-02 -0.43751E-02 -0.17172E-01
 -0.30305E-01 -0.43168E-01 -0.55198E-01 -0.65685E-01 -0.73664E-01 -0.78028E-01
 -0.77800E-01 -0.72354E-01 -0.61539E-01 -0.45765E-01 -0.26074E-01 -0.41032E-02
  0.18112E-01  0.38482E-01  0.55242E-01  0.67224E-01  0.73931E-01  0.75463E-01
  0.72400E-01  0.65671E-01  0.56359E-01  0.45439E-01  0.33630E-01  0.21461E-01
  0.94598E-02 -0.17701E-02 -0.11631E-01 -0.19597E-01 -0.25196E-01 -0.28025E-01
  0.21323E-01  0.28517E-01  0.33611E-01  0.35429E-01  0.33430E-01  0.27755E-01
  0.18916E-01  0.75075E-02 -0.58322E-02 -0.20361E-01 -0.35311E-01 -0.50020E-01
 -0.63846E-01 -0.75908E-01 -0.84998E-01 -0.89822E-01 -0.89333E-01 -0.82902E-01
 -0.70380E-01 -0.52202E-01 -0.29526E-01 -0.42184E-02  0.21375E-01  0.44826E-01
  0.64075E-01  0.77781E-01  0.85421E-01  0.87146E-01  0.83594E-01  0.75783E-01
  0.64968E-01  0.52356E-01  0.38840E-01  0.25028E-01  0.11486E-01 -0.11391E-02
 -0.12212E-01 -0.21203E-01 -0.27601E-01 -0.30875E-01  0.21951E-01  0.30225E-01
  0.36061E-01  0.38048E-01  0.35649E-01  0.29178E-01  0.19324E-01  0.67426E-02
 -0.79487E-02 -0.24023E-01 -0.40684E-01 -0.57185E-01 -0.72720E-01 -0.86184E-01
 -0.96158E-01 -0.10123E+00 -0.10032E+00 -0.92765E-01 -0.78430E-01 -0.57870E-01
 -0.32451E-01 -0.42287E-02  0.24331E-01  0.50650E-01  0.72398E-01  0.87942E-01
  0.96619E-01  0.98621E-01  0.94693E-01  0.85949E-01  0.73766E-01  0.59538E-01
  0.44368E-01  0.29014E-01  0.14115E-01  0.33104E-03 -0.11752E-01 -0.21672E-01
 -0.28905E-01 -0.32752E-01  0.22334E-01  0.31307E-01  0.37410E-01  0.39161E-01
  0.36156E-01  0.28931E-01  0.18312E-01  0.49359E-02 -0.10705E-01 -0.27989E-01
 -0.46119E-01 -0.64209E-01 -0.81220E-01 -0.95797E-01 -0.10636E+00 -0.11141E+00
 -0.10978E+00 -0.10076E+00 -0.84353E-01 -0.61529E-01 -0.34091E-01 -0.41474E-02
  0.26191E-01  0.54667E-01  0.78815E-01  0.96477E-01  0.10652E+00  0.10903E+00
  0.10491E+00  0.95449E-01  0.82133E-01  0.66502E-01  0.49866E-01  0.33202E-01
  0.17279E-01  0.27493E-02 -0.99411E-02 -0.20514E-01 -0.28520E-01 -0.33119E-01
  0.23055E-01  0.32043E-01  0.37631E-01  0.38539E-01  0.34671E-01  0.26807E-01
  0.15815E-01  0.21664E-02 -0.13901E-01 -0.31951E-01 -0.51188E-01 -0.70541E-01
 -0.88686E-01 -0.10403E+00 -0.11487E+00 -0.11959E+00 -0.11683E+00 -0.10583E+00
 -0.87015E-01 -0.62206E-01 -0.33892E-01 -0.40121E-02  0.26322E-01  0.55820E-01
  0.82102E-01  0.10222E+00  0.11413E+00  0.11754E+00  0.11349E+00  0.10356E+00
  0.89400E-01  0.72670E-01  0.54873E-01  0.37241E-01  0.20728E-01  0.59733E-02
 -0.67994E-02 -0.17630E-01 -0.26277E-01 -0.31837E-01  0.24341E-01  0.32691E-01
  0.37083E-01  0.36665E-01  0.31778E-01  0.23432E-01  0.12436E-01 -0.10264E-02
 -0.17058E-01 -0.35445E-01 -0.55392E-01 -0.75620E-01 -0.94528E-01 -0.11032E+00
 -0.12118E+00 -0.12530E+00 -0.12110E+00 -0.10783E+00 -0.86538E-01 -0.60202E-01
 -0.32123E-01 -0.38687E-02  0.24904E-01  0.54320E-01  0.82274E-01  0.10490E+00
  0.11898E+00  0.12358E+00  0.11984E+00  0.10967E+00  0.94958E-01  0.77465E-01
  0.58864E-01  0.40638E-01  0.23942E-01  0.94010E-02 -0.30248E-02 -0.13769E-01
 -0.22894E-01 -0.29517E-01  0.25701E-01  0.33228E-01  0.36355E-01  0.34669E-01
  0.28912E-01  0.20264E-01  0.94325E-02 -0.36766E-02 -0.19472E-01 -0.37925E-01
 -0.58236E-01 -0.78958E-01 -0.98283E-01 -0.11428E+00 -0.12502E+00 -0.12856E+00
 -0.12309E+00 -0.10790E+00 -0.84666E-01 -0.57379E-01 -0.30009E-01 -0.37278E-02
  0.23132E-01  0.51975E-01  0.80985E-01  0.10555E+00  0.12139E+00  0.12702E+00
  0.12362E+00  0.11336E+00  0.98326E-01  0.80388E-01  0.61334E-01  0.42833E-01
  0.26190E-01  0.12017E-01  0.51549E-04 -0.10472E-01 -0.19889E-01 -0.27369E-01
  0.26280E-01  0.33414E-01  0.35975E-01  0.33745E-01  0.27628E-01  0.18869E-01
  0.81276E-02 -0.48134E-02 -0.20486E-01 -0.38933E-01 -0.59347E-01 -0.80215E-01
 -0.99652E-01 -0.11568E+00 -0.12635E+00 -0.12963E+00 -0.12365E+00 -0.10769E+00
 -0.83696E-01 -0.56058E-01 -0.29005E-01 -0.35387E-02  0.22537E-01  0.51112E-01
  0.80464E-01  0.10568E+00  0.12210E+00  0.12805E+00  0.12470E+00  0.11436E+00
  0.99196E-01  0.81105E-01  0.61917E-01  0.43364E-01  0.26801E-01  0.12824E-01
  0.10803E-02 -0.93178E-02 -0.18799E-01 -0.26553E-01  0.25682E-01  0.33142E-01
  0.36188E-01  0.34427E-01  0.28615E-01  0.19936E-01  0.90918E-02 -0.40263E-02
 -0.19829E-01 -0.38283E-01 -0.58576E-01 -0.79257E-01 -0.98521E-01 -0.11445E+00
 -0.12515E+00 -0.12867E+00 -0.12319E+00 -0.10796E+00 -0.84649E-01 -0.57243E-01
 -0.29709E-01 -0.32260E-02  0.23831E-01  0.52772E-01  0.81697E-01  0.10599E+00
  0.12146E+00  0.12674E+00  0.12305E+00  0.11260E+00  0.97475E-01  0.79513E-01
  0.60492E-01  0.42064E-01  0.25510E-01  0.11416E-01 -0.48613E-03 -0.10937E-01
 -0.20224E-01 -0.27499E-01  0.24377E-01  0.32611E-01  0.36842E-01  0.36255E-01
  0.31234E-01  0.22806E-01  0.11767E-01 -0.17207E-02 -0.17766E-01 -0.36145E-01
 -0.56050E-01 -0.76194E-01 -0.94981E-01 -0.11065E+00 -0.12140E+00 -0.12547E+00
 -0.12122E+00 -0.10785E+00 -0.86385E-01 -0.59790E-01 -0.31384E-01 -0.27676E-02
  0.26308E-01  0.55816E-01  0.83533E-01  0.10562E+00  0.11900E+00  0.12294E+00
  0.11869E+00  0.10819E+00  0.93299E-01  0.75768E-01  0.57233E-01  0.39143E-01
  0.22618E-01  0.82475E-02 -0.40237E-02 -0.14588E-01 -0.23434E-01 -0.29657E-01
  0.23233E-01  0.32079E-01  0.37431E-01  0.38065E-01  0.33961E-01  0.25937E-01
  0.14853E-01  0.11525E-02 -0.14934E-01 -0.32960E-01 -0.52124E-01 -0.71351E-01
 -0.89321E-01 -0.10447E+00 -0.11512E+00 -0.11969E+00 -0.11681E+00 -0.10564E+00
 -0.86539E-01 -0.61331E-01 -0.32555E-01 -0.22369E-02  0.28372E-01  0.57820E-01
  0.83640E-01  0.10296E+00  0.11394E+00  0.11648E+00  0.11177E+00  0.10140E+00
  0.87018E-01  0.70252E-01  0.52551E-01  0.35106E-01  0.18840E-01  0.43578E-02
 -0.81347E-02 -0.18641E-01 -0.26849E-01 -0.31840E-01  0.22689E-01  0.31512E-01
  0.37320E-01  0.38706E-01  0.35365E-01  0.27894E-01  0.17121E-01  0.36582E-02
 -0.12010E-01 -0.29256E-01 -0.47282E-01 -0.65209E-01 -0.81996E-01 -0.96296E-01
 -0.10657E+00 -0.11135E+00 -0.10948E+00 -0.10018E+00 -0.83383E-01 -0.60066E-01
 -0.32109E-01 -0.17600E-02  0.28708E-01  0.56908E-01  0.80356E-01  0.97020E-01
  0.10598E+00  0.10752E+00  0.10265E+00  0.92700E-01  0.79150E-01  0.63495E-01
  0.46985E-01  0.30552E-01  0.14944E-01  0.79241E-03 -0.11478E-01 -0.21573E-01
 -0.28995E-01 -0.32910E-01  0.22463E-01  0.30579E-01  0.36089E-01  0.37655E-01
  0.34849E-01  0.28061E-01  0.17990E-01  0.52802E-02 -0.94549E-02 -0.25483E-01
 -0.42018E-01 -0.58324E-01 -0.73596E-01 -0.86716E-01 -0.96287E-01 -0.10095E+00
 -0.99648E-01 -0.91693E-01 -0.76897E-01 -0.55821E-01 -0.29929E-01 -0.14295E-02
  0.27059E-01  0.52877E-01  0.73737E-01  0.88166E-01  0.95702E-01  0.96697E-01
  0.91993E-01  0.82746E-01  0.70331E-01  0.56097E-01  0.41079E-01  0.25994E-01
  0.11472E-01 -0.18393E-02 -0.13378E-01 -0.22689E-01 -0.29235E-01 -0.32344E-01
  0.21947E-01  0.28975E-01  0.33735E-01  0.35117E-01  0.32679E-01  0.26634E-01
  0.17524E-01  0.59439E-02 -0.74639E-02 -0.21951E-01 -0.36761E-01 -0.51252E-01
 -0.64780E-01 -0.76448E-01 -0.85054E-01 -0.89347E-01 -0.88329E-01 -0.81383E-01
 -0.68352E-01 -0.49697E-01 -0.26663E-01 -0.12520E-02  0.24077E-01  0.46864E-01
  0.65123E-01  0.77675E-01  0.84173E-01  0.84903E-01  0.80587E-01  0.72283E-01
  0.61247E-01  0.48639E-01  0.35292E-01  0.21781E-01  0.86668E-02 -0.34105E-02
 -0.13846E-01 -0.22136E-01 -0.27789E-01 -0.30318E-01  0.20747E-01  0.26649E-01
  0.30571E-01  0.31647E-01  0.29473E-01  0.24146E-01  0.16076E-01  0.58023E-02
 -0.60644E-02 -0.18837E-01 -0.31833E-01 -0.44461E-01 -0.56166E-01 -0.66231E-01
 -0.73686E-01 -0.77451E-01 -0.76599E-01 -0.70554E-01 -0.59203E-01 -0.43007E-01
 -0.23085E-01 -0.11676E-02  0.20643E-01  0.40261E-01  0.56006E-01  0.66850E-01
  0.72448E-01  0.73023E-01  0.69230E-01  0.62032E-01  0.52505E-01  0.41589E-01
  0.29955E-01  0.18111E-01  0.65768E-02 -0.40568E-02 -0.13223E-01 -0.20435E-01
 -0.25262E-01 -0.27364E-01  0.18824E-01  0.23753E-01  0.26939E-01  0.27717E-01
  0.25742E-01  0.21053E-01  0.13993E-01  0.50559E-02 -0.52087E-02 -0.16228E-01
 -0.27425E-01 -0.38258E-01 -0.48201E-01 -0.56660E-01 -0.62890E-01 -0.66031E-01
 -0.65284E-01 -0.60110E-01 -0.50404E-01 -0.36594E-01 -0.19671E-01 -0.11076E-02
  0.17349E-01  0.33969E-01  0.47338E-01  0.56555E-01  0.61298E-01  0.61771E-01
  0.58577E-01  0.52542E-01  0.44518E-01  0.35233E-01  0.25255E-01  0.15069E-01
  0.51597E-02 -0.39741E-02 -0.11856E-01 -0.18047E-01 -0.22161E-01 -0.23942E-01
  0.16335E-01  0.20465E-01  0.23051E-01  0.23578E-01  0.21770E-01  0.17658E-01
  0.11549E-01  0.39000E-02 -0.48129E-02 -0.14139E-01 -0.23621E-01 -0.32775E-01
 -0.41099E-01 -0.48079E-01 -0.53146E-01 -0.55655E-01 -0.54960E-01 -0.50587E-01
 -0.42419E-01 -0.30811E-01 -0.16603E-01 -0.10355E-02  0.14431E-01  0.28356E-01
  0.39556E-01  0.47269E-01  0.51233E-01  0.51651E-01  0.49053E-01  0.44108E-01
  0.37463E-01  0.29680E-01  0.21257E-01  0.12662E-01  0.43268E-02 -0.33576E-02
 -0.10017E-01 -0.15269E-01 -0.18768E-01 -0.20296E-01  0.13477E-01  0.16942E-01
  0.19042E-01  0.19375E-01  0.17740E-01  0.14180E-01  0.89699E-02  0.25164E-02
 -0.47723E-02 -0.12536E-01 -0.20419E-01 -0.28017E-01 -0.34885E-01 -0.40584E-01
 -0.44664E-01 -0.46630E-01 -0.45969E-01 -0.42284E-01 -0.35462E-01 -0.25779E-01
 -0.13929E-01 -0.94791E-03  0.11938E-01  0.23524E-01  0.32829E-01  0.39233E-01
  0.42532E-01  0.42911E-01  0.40818E-01  0.36794E-01  0.31343E-01  0.24915E-01
  0.17942E-01  0.10836E-01  0.39549E-02 -0.23993E-02 -0.79306E-02 -0.12315E-01
 -0.15249E-01 -0.16546E-01  0.10474E-01  0.13378E-01  0.15080E-01  0.15269E-01
  0.13817E-01  0.10786E-01  0.64134E-02  0.10406E-02 -0.49800E-02 -0.11341E-01
 -0.17759E-01 -0.23924E-01 -0.29492E-01 -0.34109E-01 -0.37402E-01 -0.38959E-01
 -0.38357E-01 -0.35267E-01 -0.29589E-01 -0.21536E-01 -0.11669E-01 -0.85282E-03
  0.98721E-02  0.19488E-01  0.27186E-01  0.32471E-01  0.35192E-01  0.35508E-01
  0.33795E-01  0.30509E-01  0.26075E-01  0.20866E-01  0.15230E-01  0.94866E-02
  0.39107E-02 -0.12580E-02 -0.57698E-02 -0.93516E-02 -0.11756E-01 -0.12829E-01
  0.75659E-02  0.10009E-01  0.11377E-01  0.11434E-01  0.10129E-01  0.75633E-02
  0.39431E-02 -0.45568E-03 -0.53378E-02 -0.10438E-01 -0.15530E-01 -0.20400E-01
 -0.24812E-01 -0.28499E-01 -0.31148E-01 -0.32405E-01 -0.31910E-01 -0.29388E-01
 -0.24729E-01 -0.18066E-01 -0.98289E-02 -0.75383E-03  0.82322E-02  0.16225E-01
  0.22545E-01  0.26823E-01  0.28983E-01  0.29188E-01  0.27763E-01  0.25094E-01
  0.21546E-01  0.17427E-01  0.12998E-01  0.84834E-02  0.40774E-02 -0.29221E-04
 -0.36239E-02 -0.64847E-02 -0.84211E-02 -0.93071E-02  0.49339E-02  0.70182E-02
  0.80907E-02  0.79811E-02  0.67382E-02  0.45345E-02  0.15752E-02 -0.19260E-02
 -0.57482E-02 -0.96887E-02 -0.13587E-01 -0.17308E-01 -0.20699E-01 -0.23560E-01
 -0.25640E-01 -0.26660E-01 -0.26339E-01 -0.24431E-01 -0.20761E-01 -0.15322E-01
 -0.83991E-02 -0.64953E-03  0.70115E-02  0.13691E-01  0.18788E-01  0.22077E-01
  0.23626E-01  0.23659E-01  0.22468E-01  0.20356E-01  0.17605E-01  0.14453E-01
  0.11097E-01  0.76886E-02  0.43537E-02  0.12270E-02 -0.15337E-02 -0.37674E-02
 -0.53328E-02 -0.61089E-02  0.26178E-02  0.44274E-02  0.52289E-02  0.49123E-02
  0.36501E-02  0.17217E-02 -0.64423E-03 -0.32947E-02 -0.61051E-02 -0.89626E-02
 -0.11780E-01 -0.14481E-01 -0.16963E-01 -0.19072E-01 -0.20634E-01 -0.21475E-01
 -0.21410E-01 -0.20194E-01 -0.17527E-01 -0.13196E-01 -0.73239E-02 -0.54099E-03
  0.61484E-02  0.11766E-01  0.15744E-01  0.18030E-01  0.18897E-01  0.18690E-01
  0.17688E-01  0.16091E-01  0.14068E-01  0.11784E-01  0.93851E-02  0.69782E-02
  0.46361E-02  0.24274E-02  0.43498E-03 -0.12521E-02 -0.25342E-02 -0.32735E-02
  0.53721E-03  0.21062E-02  0.26574E-02  0.21397E-02  0.85282E-03 -0.81303E-03
 -0.26064E-02 -0.44405E-02 -0.62948E-02 -0.81500E-02 -0.99835E-02 -0.11761E-01
 -0.13411E-01 -0.14830E-01 -0.15929E-01 -0.16649E-01 -0.16896E-01 -0.16406E-01
 -0.14724E-01 -0.11412E-01 -0.64380E-02 -0.43650E-03  0.54571E-02  0.10144E-01
  0.13081E-01  0.14388E-01  0.14563E-01  0.14087E-01  0.13234E-01  0.12107E-01
  0.10761E-01  0.92755E-02  0.77475E-02  0.62488E-02  0.48109E-02  0.34455E-02
  0.21620E-02  0.97679E-03 -0.51345E-04 -0.76596E-03 -0.13617E-02 -0.71399E-04
  0.25417E-03 -0.38550E-03 -0.16009E-02 -0.29362E-02 -0.41453E-02 -0.52102E-02
 -0.61990E-02 -0.71597E-02 -0.81082E-02 -0.90378E-02 -0.99142E-02 -0.10693E-01
 -0.11368E-01 -0.11978E-01 -0.12492E-01 -0.12637E-01 -0.11845E-01 -0.95084E-02
 -0.54698E-02 -0.34905E-03  0.46429E-02  0.83510E-02  0.10284E-01  0.10722E-01
  0.10323E-01  0.96512E-02  0.89626E-02  0.82808E-02  0.75702E-02  0.68328E-02
  0.61042E-02  0.54137E-02  0.47644E-02  0.41368E-02  0.34931E-02  0.27920E-02
  0.20512E-02  0.14267E-02 -0.29493E-02 -0.20233E-02 -0.18849E-02 -0.25066E-02
 -0.34933E-02 -0.44080E-02 -0.50449E-02 -0.54388E-02 -0.57040E-02 -0.59153E-02
 -0.61002E-02 -0.62716E-02 -0.64394E-02 -0.66214E-02 -0.68740E-02 -0.72922E-02
 -0.79012E-02 -0.84666E-02 -0.84133E-02 -0.70696E-02 -0.41811E-02 -0.28668E-03
  0.34637E-02  0.59928E-02  0.69267E-02  0.66638E-02  0.59234E-02  0.52451E-02
  0.48141E-02  0.45871E-02  0.44748E-02  0.44231E-02  0.44058E-02  0.44045E-02
  0.44012E-02  0.43703E-02  0.42609E-02  0.40077E-02  0.36010E-02  0.31721E-02
 -0.39300E-02 -0.34374E-02 -0.34213E-02 -0.38656E-02 -0.44800E-02 -0.49406E-02
 -0.51008E-02 -0.50011E-02 -0.47414E-02 -0.43841E-02 -0.39565E-02 -0.34922E-02
 -0.30454E-02 -0.26818E-02 -0.24887E-02 -0.25878E-02 -0.30682E-02 -0.38087E-02
 -0.43446E-02 -0.40346E-02 -0.25427E-02 -0.24207E-03  0.19204E-02  0.30739E-02
  0.30159E-02  0.22277E-02  0.13891E-02  0.91309E-03  0.85500E-03  0.10992E-02
  0.15305E-02  0.20691E-02  0.26440E-02  0.31920E-02  0.36731E-02  0.40626E-02
  0.43259E-02  0.44207E-02  0.43468E-02  0.41992E-02 -0.42969E-02 -0.49783E-02
 -0.51912E-02 -0.50279E-02 -0.46403E-02 -0.41061E-02 -0.33901E-02 -0.24039E-02
 -0.10865E-02  0.55249E-03  0.24251E-02  0.43781E-02  0.62348E-02  0.78515E-02
  0.91149E-02  0.98496E-02  0.97731E-02  0.86671E-02  0.66728E-02  0.43419E-02
  0.22496E-02  0.51119E-03 -0.12401E-02 -0.33378E-02 -0.55987E-02 -0.74106E-02
 -0.82576E-02 -0.80862E-02 -0.71961E-02 -0.59105E-02 -0.44153E-02 -0.28267E-02
 -0.12814E-02  0.73499E-04  0.11335E-02  0.18689E-02  0.23404E-02  0.26913E-02
  0.30739E-02  0.35248E-02 -0.46494E-02 -0.51987E-02 -0.56097E-02 -0.58394E-02
 -0.58072E-02 -0.54346E-02 -0.46968E-02 -0.36258E-02 -0.22738E-02 -0.68927E-03
  0.10621E-02  0.28677E-02  0.45872E-02  0.61085E-02  0.73510E-02  0.81754E-02
  0.83248E-02  0.75655E-02  0.59583E-02  0.39378E-02  0.20056E-02  0.31677E-03
 -0.13605E-02 -0.32327E-02 -0.50970E-02 -0.64356E-02 -0.68626E-02 -0.64067E-02
 -0.53800E-02 -0.40768E-02 -0.26469E-02 -0.11736E-02  0.23892E-03  0.14797E-02
  0.24826E-02  0.32381E-02  0.37717E-02  0.41215E-02  0.43252E-02  0.44108E-02
 -0.49183E-02 -0.52734E-02 -0.58388E-02 -0.64382E-02 -0.67579E-02 -0.65638E-02
 -0.58407E-02 -0.47389E-02 -0.34224E-02 -0.19808E-02 -0.45975E-03  0.10737E-02
  0.25242E-02  0.38136E-02  0.48891E-02  0.56509E-02  0.59008E-02  0.54452E-02
  0.43109E-02  0.28204E-02  0.13699E-02  0.10808E-03 -0.11092E-02 -0.24177E-02
 -0.36576E-02 -0.44474E-02 -0.45200E-02 -0.39269E-02 -0.29265E-02 -0.17517E-02
 -0.51631E-03  0.72163E-03  0.18943E-02  0.29368E-02  0.38241E-02  0.45606E-02
  0.51269E-02  0.54509E-02  0.54548E-02  0.51600E-02 -0.47269E-02 -0.47776E-02
 -0.53428E-02 -0.61708E-02 -0.67879E-02 -0.68420E-02 -0.63035E-02 -0.53793E-02
 -0.42931E-02 -0.31610E-02 -0.20216E-02 -0.91025E-03  0.12146E-03  0.10311E-02
  0.17848E-02  0.23107E-02  0.24793E-02  0.21897E-02  0.15164E-02  0.73903E-03
  0.15583E-03 -0.16253E-03 -0.40042E-03 -0.75258E-03 -0.11784E-02 -0.14276E-02
 -0.12831E-02 -0.73419E-03  0.69245E-04  0.96849E-03  0.18744E-02  0.27456E-02
  0.35508E-02  0.42695E-02  0.49047E-02  0.54598E-02  0.58797E-02  0.60243E-02
  0.57563E-02  0.51151E-02 -0.39127E-02 -0.35724E-02 -0.39549E-02 -0.48142E-02
 -0.56311E-02 -0.59985E-02 -0.58460E-02 -0.53558E-02 -0.47391E-02 -0.41137E-02
 -0.35228E-02 -0.29880E-02 -0.25210E-02 -0.21220E-02 -0.18035E-02 -0.16192E-02
 -0.16383E-02 -0.18519E-02 -0.20853E-02 -0.20396E-02 -0.14921E-02 -0.50227E-03
  0.59697E-03  0.14499E-02  0.19387E-02  0.22124E-02  0.24981E-02  0.29117E-02
  0.34244E-02  0.39459E-02  0.44076E-02  0.47874E-02  0.50937E-02  0.53438E-02
  0.55524E-02  0.57113E-02  0.57514E-02  0.55291E-02  0.49232E-02  0.40184E-02
 -0.25871E-02 -0.18452E-02 -0.19167E-02 -0.26265E-02 -0.35177E-02 -0.41989E-02
 -0.45550E-02 -0.46879E-02 -0.47397E-02 -0.47992E-02 -0.49092E-02 -0.50838E-02
 -0.52988E-02 -0.55061E-02 -0.56823E-02 -0.58517E-02 -0.60299E-02 -0.61206E-02
 -0.58670E-02 -0.49515E-02 -0.32206E-02 -0.86875E-03  0.16069E-02  0.36841E-02
  0.51035E-02  0.59352E-02  0.64146E-02  0.67338E-02  0.69537E-02  0.70467E-02
  0.69810E-02  0.67701E-02  0.64640E-02  0.61106E-02  0.57294E-02  0.53073E-02
  0.47900E-02  0.40849E-02  0.31408E-02  0.20939E-02 -0.94874E-03  0.14669E-03
  0.43618E-03 -0.66029E-05 -0.85450E-03 -0.17893E-02 -0.26727E-02 -0.35155E-02
 -0.43638E-02 -0.52458E-02 -0.61787E-02 -0.71596E-02 -0.81353E-02 -0.90138E-02
 -0.97183E-02 -0.10212E-01 -0.10446E-01 -0.10271E-01 -0.94162E-02 -0.76053E-02
 -0.47723E-02 -0.12164E-02  0.24638E-02  0.56497E-02  0.79871E-02  0.94638E-02
  0.10268E-01  0.10594E-01  0.10554E-01  0.10190E-01  0.95389E-02  0.86685E-02
  0.76660E-02  0.66007E-02  0.55042E-02  0.43819E-02  0.32254E-02  0.20216E-02
  0.80272E-03 -0.26335E-03  0.90888E-03  0.23139E-02  0.29630E-02  0.28272E-02
  0.20850E-02  0.95402E-03 -0.43012E-03 -0.20046E-02 -0.37187E-02 -0.55194E-02
 -0.73689E-02 -0.92293E-02 -0.11023E-01 -0.12623E-01 -0.13891E-01 -0.14699E-01
 -0.14910E-01 -0.14341E-01 -0.12768E-01 -0.10024E-01 -0.61554E-02 -0.15369E-02
  0.32005E-02  0.74107E-02  0.10678E-01  0.12887E-01  0.14121E-01  0.14524E-01
  0.14235E-01  0.13384E-01  0.12101E-01  0.10519E-01  0.87524E-02  0.68906E-02
  0.49926E-02  0.31092E-02  0.12985E-02 -0.36977E-03 -0.17952E-02 -0.28068E-02
  0.30228E-02  0.47417E-02  0.57335E-02  0.58779E-02  0.52219E-02  0.38901E-02
  0.20075E-02 -0.30678E-03 -0.29208E-02 -0.57032E-02 -0.85486E-02 -0.11366E-01
 -0.14041E-01 -0.16411E-01 -0.18276E-01 -0.19412E-01 -0.19584E-01 -0.18577E-01
 -0.16227E-01 -0.12496E-01 -0.75567E-02 -0.18523E-02  0.39675E-02  0.92400E-02
  0.13484E-01  0.16470E-01  0.18162E-01  0.18647E-01  0.18095E-01  0.16729E-01
  0.14774E-01  0.12418E-01  0.98127E-02  0.70786E-02  0.43221E-02  0.16514E-02
 -0.80967E-03 -0.29229E-02 -0.45404E-02 -0.55027E-02  0.54446E-02  0.75259E-02
  0.88502E-02  0.92156E-02  0.85680E-02  0.69671E-02  0.45411E-02  0.14609E-02
 -0.20798E-02 -0.58945E-02 -0.98180E-02 -0.13690E-01 -0.17331E-01 -0.20523E-01
 -0.23010E-01 -0.24491E-01 -0.24652E-01 -0.23230E-01 -0.20097E-01 -0.15311E-01
 -0.91613E-02 -0.21839E-02  0.49107E-02  0.11396E-01  0.16696E-01  0.20468E-01
  0.22589E-01  0.23126E-01  0.22294E-01  0.20392E-01  0.17716E-01  0.14507E-01
  0.10968E-01  0.72815E-02  0.36182E-02  0.13958E-03 -0.29842E-02 -0.55668E-02
 -0.74232E-02 -0.83996E-02  0.81118E-02  0.10621E-01  0.12288E-01  0.12833E-01
  0.12121E-01  0.10172E-01  0.71346E-02  0.32337E-02 -0.12876E-02 -0.62051E-02
 -0.11303E-01 -0.16340E-01 -0.21046E-01 -0.25131E-01 -0.28282E-01 -0.30143E-01
 -0.30332E-01 -0.28530E-01 -0.24595E-01 -0.18642E-01 -0.11068E-01 -0.25322E-02
  0.61253E-02  0.14047E-01  0.20527E-01  0.25116E-01  0.27645E-01  0.28196E-01
  0.27047E-01  0.24561E-01  0.21090E-01  0.16931E-01  0.12356E-01  0.76304E-02
  0.29962E-02 -0.13376E-02 -0.51686E-02 -0.82744E-02 -0.10434E-01 -0.11488E-01
  0.10816E-01  0.13819E-01  0.15869E-01  0.16605E-01  0.15813E-01  0.13482E-01
  0.97775E-02  0.49776E-02 -0.62363E-03 -0.67530E-02 -0.13131E-01 -0.19437E-01
 -0.25317E-01 -0.30407E-01 -0.34330E-01 -0.36656E-01 -0.36918E-01 -0.34724E-01
 -0.29899E-01 -0.22593E-01 -0.13312E-01 -0.28778E-02  0.76829E-02  0.17324E-01
  0.25175E-01  0.30679E-01  0.33633E-01  0.34158E-01  0.32603E-01  0.29417E-01
  0.25029E-01  0.19811E-01  0.14107E-01  0.82528E-02  0.25559E-02 -0.27196E-02
 -0.73277E-02 -0.11007E-01 -0.13504E-01 -0.14651E-01  0.13278E-01  0.16845E-01
  0.19357E-01  0.20345E-01  0.19513E-01  0.16809E-01  0.12409E-01  0.66295E-02
 -0.17469E-03 -0.76444E-02 -0.15408E-01 -0.23077E-01 -0.30250E-01 -0.36509E-01
 -0.41377E-01 -0.44294E-01 -0.44670E-01 -0.42029E-01 -0.36162E-01 -0.27253E-01
 -0.15923E-01 -0.31916E-02  0.96701E-02  0.21369E-01  0.30837E-01  0.37400E-01
  0.40826E-01  0.41274E-01  0.39181E-01  0.35115E-01  0.29639E-01  0.23239E-01
  0.16319E-01  0.92502E-02  0.23876E-02 -0.39315E-02 -0.93869E-02 -0.13669E-01
 -0.16501E-01 -0.17715E-01  0.15236E-01  0.19467E-01  0.22558E-01  0.23893E-01
  0.23071E-01  0.20007E-01  0.14889E-01  0.80636E-02 -0.42649E-04 -0.89576E-02
 -0.18199E-01 -0.27325E-01 -0.35928E-01 -0.43534E-01 -0.49523E-01 -0.53151E-01
 -0.53684E-01 -0.50556E-01 -0.43514E-01 -0.32741E-01 -0.18966E-01 -0.34464E-02
  0.12211E-01  0.26371E-01  0.37711E-01  0.45445E-01  0.49347E-01  0.49645E-01
  0.46874E-01  0.41745E-01  0.35001E-01  0.27278E-01  0.19048E-01  0.10687E-01
  0.25781E-02 -0.48583E-02 -0.11209E-01 -0.16113E-01 -0.19279E-01 -0.20533E-01
  0.16460E-01  0.21490E-01  0.25327E-01  0.27125E-01  0.26351E-01  0.22908E-01
  0.17031E-01  0.91207E-02 -0.32699E-03 -0.10734E-01 -0.21519E-01 -0.32204E-01
 -0.42366E-01 -0.51453E-01 -0.58674E-01 -0.63105E-01 -0.63880E-01 -0.60327E-01
 -0.52065E-01 -0.39197E-01 -0.22528E-01 -0.36229E-02  0.15436E-01  0.32523E-01
  0.45978E-01  0.54909E-01  0.59182E-01  0.59185E-01  0.55598E-01  0.49273E-01
  0.41120E-01  0.31942E-01  0.22301E-01  0.12588E-01  0.32035E-02 -0.53649E-02
 -0.12628E-01 -0.18182E-01 -0.21708E-01 -0.22990E-01  0.16789E-01  0.22724E-01
  0.27462E-01  0.29848E-01  0.29163E-01  0.25312E-01  0.18640E-01  0.96467E-02
 -0.11041E-02 -0.12972E-01 -0.25322E-01 -0.37636E-01 -0.49433E-01 -0.60047E-01
 -0.68541E-01 -0.73871E-01 -0.75054E-01 -0.71225E-01 -0.61747E-01 -0.46555E-01
 -0.26554E-01 -0.37066E-02  0.19315E-01  0.39783E-01  0.55596E-01  0.65720E-01