       #
       # Generated by the Wannier90 code http://www.wannier.org
       # On  1Apr2018 at 06:55:25 
       #
CRYSTAL
PRIMVEC
   3.0715001   0.0000000   0.0000000
   0.0300198   3.0713534   0.0000000
   0.0300198   0.0297278   3.0712095
CONVVEC
   3.0715001   0.0000000   0.0000000
   0.0300198   3.0713534   0.0000000
   0.0300198   0.0297278   3.0712095
PRIMCOORD
     1  1
Sn      0.0000000   0.0000000   0.0000000


BEGIN_BLOCK_DATAGRID_3D
3D_field
BEGIN_DATAGRID_3D_UNKNOWN
    40    40    40
   -3.288117   -3.256135   -3.224770
   5.9894252   0.0000000   0.0000000
   0.0585386   5.9891391   0.0000000
   0.0585386   0.0579692   5.9888585
  0.14978E-03 -0.35552E-03 -0.90388E-03 -0.15071E-02 -0.20794E-02 -0.24867E-02
 -0.26432E-02 -0.25484E-02 -0.22454E-02 -0.17716E-02 -0.11545E-02 -0.43391E-03
  0.32943E-03  0.10614E-02  0.16844E-02  0.21478E-02  0.24904E-02  0.28692E-02
  0.34616E-02  0.42733E-02  0.50477E-02  0.54285E-02  0.52631E-02  0.47404E-02
  0.42117E-02  0.38840E-02  0.36949E-02  0.34449E-02  0.29953E-02  0.23365E-02
  0.15345E-02  0.67035E-03 -0.17585E-03 -0.93184E-03 -0.15490E-02 -0.20025E-02
 -0.22702E-02 -0.23242E-02 -0.21594E-02 -0.18224E-02 -0.35527E-03 -0.52606E-03
 -0.70515E-03 -0.95222E-03 -0.12270E-02 -0.14154E-02 -0.14137E-02 -0.11809E-02
 -0.72554E-03 -0.72588E-04  0.74673E-03  0.16864E-02  0.26838E-02  0.36680E-02
  0.45645E-02  0.53010E-02  0.58327E-02  0.61778E-02  0.64148E-02  0.66204E-02
  0.68073E-02  0.69398E-02  0.70082E-02  0.70554E-02  0.71077E-02  0.71003E-02
  0.69028E-02  0.64231E-02  0.56701E-02  0.47220E-02  0.36664E-02  0.25801E-02
  0.15400E-02  0.61872E-03 -0.13342E-03 -0.69165E-03 -0.10451E-02 -0.11989E-02
 -0.11930E-02 -0.11047E-02 -0.90338E-03 -0.70493E-03 -0.48676E-03 -0.35230E-03
 -0.30489E-03 -0.25398E-03 -0.84567E-04  0.28057E-03  0.86545E-03  0.16584E-02
  0.26295E-02  0.37348E-02  0.49180E-02  0.61185E-02  0.72726E-02  0.82942E-02
  0.90576E-02  0.94334E-02  0.93817E-02  0.90313E-02  0.86570E-02  0.85444E-02
  0.88249E-02  0.93890E-02  0.99399E-02  0.10159E-01  0.98764E-02  0.91270E-02
  0.80684E-02  0.68564E-02  0.55898E-02  0.43354E-02  0.31614E-02  0.21322E-02
  0.12902E-02  0.65461E-03  0.22442E-03 -0.34339E-04 -0.19924E-03 -0.37019E-03
 -0.15064E-02 -0.95187E-03 -0.35219E-03  0.15597E-03  0.53218E-03  0.84054E-03
  0.11954E-02  0.16948E-02  0.23843E-02  0.32640E-02  0.43135E-02  0.55026E-02
  0.67891E-02  0.81211E-02  0.94408E-02  0.10655E-01  0.11591E-01  0.12018E-01
  0.11805E-01  0.11101E-01  0.10351E-01  0.10060E-01  0.10453E-01  0.11315E-01
  0.12133E-01  0.12435E-01  0.12045E-01  0.11095E-01  0.98356E-02  0.84638E-02
  0.70804E-02  0.57471E-02  0.45241E-02  0.34608E-02  0.25830E-02  0.18998E-02
  0.13997E-02  0.10287E-02  0.68591E-03  0.26307E-03 -0.20787E-02 -0.12266E-02
 -0.30478E-03  0.53217E-03  0.12150E-02  0.17788E-02  0.23241E-02  0.29514E-02
  0.37139E-02  0.46191E-02  0.56598E-02  0.68283E-02  0.81017E-02  0.94337E-02
  0.10763E-01  0.11996E-01  0.12950E-01  0.13370E-01  0.13091E-01  0.12255E-01
  0.11358E-01  0.10974E-01  0.11361E-01  0.12268E-01  0.13117E-01  0.13402E-01
  0.12966E-01  0.11975E-01  0.10697E-01  0.93287E-02  0.79678E-02  0.66780E-02
  0.55123E-02  0.44998E-02  0.36459E-02  0.29491E-02  0.23928E-02  0.19142E-02
  0.14047E-02  0.76164E-03 -0.24861E-02 -0.14151E-02 -0.25397E-03  0.84041E-03
  0.17787E-02  0.25658E-02  0.32773E-02  0.40008E-02  0.47855E-02  0.56413E-02
  0.65744E-02  0.76020E-02  0.87240E-02  0.99007E-02  0.11064E-01  0.12118E-01
  0.12904E-01  0.13205E-01  0.12876E-01  0.12047E-01  0.11165E-01  0.10755E-01
  0.11053E-01  0.11831E-01  0.12572E-01  0.12828E-01  0.12462E-01  0.11616E-01
  0.10515E-01  0.93275E-02  0.81479E-02  0.70429E-02  0.60552E-02  0.51903E-02
  0.44325E-02  0.37714E-02  0.31904E-02  0.26295E-02  0.19869E-02  0.11765E-02
 -0.26428E-02 -0.14136E-02 -0.84698E-04  0.11952E-02  0.23238E-02  0.32771E-02
  0.40985E-02  0.48524E-02  0.55782E-02  0.62898E-02  0.70088E-02  0.77739E-02
  0.86058E-02  0.94729E-02  0.10303E-01  0.11005E-01  0.11456E-01  0.11508E-01
  0.11074E-01  0.10273E-01  0.94647E-02  0.90579E-02  0.92383E-02  0.98339E-02
  0.10449E-01  0.10733E-01  0.10566E-01  0.10030E-01  0.92793E-02  0.84385E-02
  0.75951E-02  0.68138E-02  0.61247E-02  0.55122E-02  0.49419E-02  0.43925E-02
  0.38459E-02  0.32510E-02  0.25256E-02  0.16074E-02 -0.25481E-02 -0.11810E-02
  0.28026E-03  0.16944E-02  0.29509E-02  0.40005E-02  0.48522E-02  0.55431E-02
  0.61069E-02  0.65702E-02  0.69725E-02  0.73656E-02  0.77786E-02  0.81874E-02
  0.85269E-02  0.87226E-02  0.86985E-02  0.83799E-02  0.77460E-02  0.69141E-02
  0.61496E-02  0.57409E-02  0.58177E-02  0.62676E-02  0.68220E-02  0.72308E-02
  0.73815E-02  0.72946E-02  0.70466E-02  0.67121E-02  0.63544E-02  0.60247E-02
  0.57425E-02  0.54835E-02  0.52022E-02  0.48619E-02  0.44334E-02  0.38728E-02
  0.31232E-02  0.21501E-02 -0.22455E-02 -0.72585E-03  0.86492E-03  0.23836E-02
  0.37132E-02  0.47849E-02  0.55777E-02  0.61066E-02  0.64081E-02  0.65296E-02
  0.65257E-02  0.64462E-02  0.63147E-02  0.61155E-02  0.58089E-02  0.53588E-02
  0.47420E-02  0.39500E-02  0.30160E-02  0.20554E-02  0.12613E-02  0.82518E-03
  0.83278E-03  0.12192E-02  0.18172E-02  0.24547E-02  0.30271E-02  0.35045E-02
  0.38966E-02  0.42205E-02  0.44955E-02  0.47421E-02  0.49682E-02  0.51534E-02
  0.52534E-02  0.52179E-02  0.49990E-02  0.45517E-02  0.38404E-02  0.28576E-02
 -0.17720E-02 -0.73244E-04  0.16575E-02  0.32631E-02  0.46181E-02  0.56404E-02
  0.62891E-02  0.65697E-02  0.65294E-02  0.62336E-02  0.57392E-02  0.50820E-02
  0.42785E-02  0.33340E-02  0.22537E-02  0.10524E-02 -0.24341E-03 -0.15930E-02
 -0.29259E-02 -0.41250E-02 -0.50400E-02 -0.55384E-02 -0.55601E-02 -0.51388E-02
 -0.43782E-02 -0.34039E-02 -0.23194E-02 -0.11909E-02 -0.59498E-04  0.10402E-02
  0.20754E-02  0.30216E-02  0.38627E-02  0.45795E-02  0.51375E-02  0.54839E-02
  0.55561E-02  0.53005E-02  0.46910E-02  0.37390E-02 -0.11553E-02  0.74566E-03
  0.26283E-02  0.43122E-02  0.56585E-02  0.65732E-02  0.70077E-02  0.69716E-02
  0.65251E-02  0.57389E-02  0.46596E-02  0.33123E-02  0.17253E-02 -0.57459E-04
 -0.19826E-02 -0.39944E-02 -0.60315E-02 -0.80167E-02 -0.98456E-02 -0.11387E-01
 -0.12507E-01 -0.13099E-01 -0.13115E-01 -0.12571E-01 -0.11537E-01 -0.10120E-01
 -0.84370E-02 -0.65913E-02 -0.46646E-02 -0.27278E-02 -0.85127E-03  0.89743E-03
  0.24630E-02  0.38071E-02  0.48976E-02  0.56902E-02  0.61205E-02  0.61244E-02
  0.56717E-02  0.47819E-02 -0.43525E-03  0.16849E-02  0.37332E-02  0.55009E-02
  0.68266E-02  0.76004E-02  0.77725E-02  0.73644E-02  0.64453E-02  0.50814E-02
  0.33120E-02  0.11743E-02 -0.12674E-02 -0.39289E-02 -0.67287E-02 -0.95899E-02
 -0.12419E-01 -0.15089E-01 -0.17451E-01 -0.19359E-01 -0.20693E-01 -0.21379E-01
 -0.21380E-01 -0.20696E-01 -0.19364E-01 -0.17469E-01 -0.15140E-01 -0.12525E-01
 -0.97614E-02 -0.69567E-02 -0.42024E-02 -0.15888E-02  0.79222E-03  0.28630E-02
  0.45723E-02  0.58785E-02  0.67234E-02  0.70362E-02  0.67750E-02  0.59597E-02
  0.32765E-03  0.26819E-02  0.49160E-02  0.67870E-02  0.80996E-02  0.87220E-02
  0.86040E-02  0.77772E-02  0.63136E-02  0.42777E-02  0.17247E-02 -0.12677E-02
 -0.45947E-02 -0.81541E-02 -0.11857E-01 -0.15590E-01 -0.19188E-01 -0.22444E-01
 -0.25175E-01 -0.27265E-01 -0.28668E-01 -0.29383E-01 -0.29408E-01 -0.28714E-01
 -0.27266E-01 -0.25068E-01 -0.22208E-01 -0.18861E-01 -0.15238E-01 -0.11531E-01
 -0.78730E-02 -0.43668E-02 -0.11176E-02  0.17612E-02  0.41775E-02  0.60695E-02
  0.73776E-02  0.80290E-02  0.79720E-02  0.72256E-02  0.10593E-02  0.36656E-02
  0.61161E-02  0.81187E-02  0.94313E-02  0.98984E-02  0.94708E-02  0.81856E-02
  0.61140E-02  0.33329E-02 -0.58240E-04 -0.39293E-02 -0.81543E-02 -0.12634E-01
 -0.17243E-01 -0.21763E-01 -0.25888E-01 -0.29342E-01 -0.31989E-01 -0.33854E-01
 -0.35051E-01 -0.35691E-01 -0.35815E-01 -0.35361E-01 -0.34187E-01 -0.32138E-01
 -0.29154E-01 -0.25340E-01 -0.20965E-01 -0.16354E-01 -0.11765E-01 -0.73511E-02
 -0.32175E-02  0.51115E-03  0.36983E-02  0.62359E-02  0.80460E-02  0.90550E-02
  0.92077E-02  0.85201E-02  0.16819E-02  0.45618E-02  0.72698E-02  0.94380E-02
  0.10761E-01  0.11061E-01  0.10301E-01  0.85248E-02  0.58071E-02  0.22523E-02
 -0.19836E-02 -0.67293E-02 -0.11857E-01 -0.17244E-01 -0.22641E-01 -0.27623E-01
 -0.31747E-01 -0.34787E-01 -0.36824E-01 -0.38127E-01 -0.38959E-01 -0.39482E-01
 -0.39740E-01 -0.39666E-01 -0.39075E-01 -0.37674E-01 -0.35167E-01 -0.31431E-01
 -0.26657E-01 -0.21286E-01 -0.15787E-01 -0.10460E-01 -0.54476E-02 -0.87118E-03
  0.31045E-02  0.63170E-02  0.86551E-02  0.10041E-01  0.10415E-01  0.97793E-02
  0.21451E-02  0.52981E-02  0.82911E-02  0.10652E-01  0.11992E-01  0.12114E-01
  0.11002E-01  0.87202E-02  0.53569E-02  0.10508E-02 -0.39955E-02 -0.95906E-02
 -0.15591E-01 -0.21764E-01 -0.27623E-01 -0.32523E-01 -0.36033E-01 -0.38227E-01
 -0.39567E-01 -0.40521E-01 -0.41290E-01 -0.41843E-01 -0.42121E-01 -0.42138E-01
 -0.41893E-01 -0.41181E-01 -0.39537E-01 -0.36472E-01 -0.31854E-01 -0.26076E-01
 -0.19810E-01 -0.13607E-01 -0.77422E-02 -0.23560E-02  0.23749E-02  0.62481E-02
  0.91170E-02  0.10891E-01  0.11493E-01  0.10903E-01  0.24877E-02  0.58298E-02
  0.90545E-02  0.11588E-01  0.12946E-01  0.12901E-01  0.11453E-01  0.86959E-02
  0.47399E-02 -0.24499E-03 -0.60326E-02 -0.12419E-01 -0.19188E-01 -0.25888E-01
 -0.31747E-01 -0.36033E-01 -0.38634E-01 -0.40196E-01 -0.41591E-01 -0.43214E-01
 -0.44776E-01 -0.45706E-01 -0.45701E-01 -0.44983E-01 -0.44076E-01 -0.43271E-01
 -0.42218E-01 -0.40065E-01 -0.36110E-01 -0.30395E-01 -0.23641E-01 -0.16680E-01
 -0.10024E-01 -0.38998E-02  0.15033E-02  0.59661E-02  0.93175E-02  0.11449E-01
  0.12260E-01  0.11704E-01  0.28666E-02  0.61750E-02  0.94304E-02  0.12015E-01
  0.13367E-01  0.13201E-01  0.11505E-01  0.83772E-02  0.39479E-02 -0.15945E-02
 -0.80178E-02 -0.15089E-01 -0.22444E-01 -0.29341E-01 -0.34786E-01 -0.38226E-01
 -0.40196E-01 -0.42064E-01 -0.44926E-01 -0.48672E-01 -0.52083E-01 -0.53764E-01
 -0.53094E-01 -0.50603E-01 -0.47608E-01 -0.45315E-01 -0.43897E-01 -0.42328E-01
 -0.39221E-01 -0.33961E-01 -0.27053E-01 -0.19529E-01 -0.12194E-01 -0.54431E-02
  0.49912E-03  0.54124E-02  0.91200E-02  0.11506E-01  0.12463E-01  0.11948E-01
  0.34592E-02  0.64124E-02  0.93792E-02  0.11802E-01  0.13088E-01  0.12873E-01
  0.11071E-01  0.77436E-02  0.30141E-02 -0.29273E-02 -0.98464E-02 -0.17452E-01
 -0.25175E-01 -0.31989E-01 -0.36824E-01 -0.39566E-01 -0.41590E-01 -0.44926E-01
 -0.50571E-01 -0.57536E-01 -0.63446E-01 -0.66054E-01 -0.64459E-01 -0.59506E-01
 -0.53355E-01 -0.48314E-01 -0.45408E-01 -0.43732E-01 -0.41288E-01 -0.36643E-01
 -0.29849E-01 -0.21981E-01 -0.14127E-01 -0.68957E-02 -0.58531E-03  0.45873E-02
  0.84611E-02  0.10942E-01  0.11961E-01  0.11529E-01  0.42714E-02  0.66185E-02
  0.90295E-02  0.11099E-01  0.12253E-01  0.12044E-01  0.10271E-01  0.69121E-02
  0.20538E-02 -0.41260E-02 -0.11388E-01 -0.19359E-01 -0.27264E-01 -0.33853E-01
 -0.38125E-01 -0.40519E-01 -0.43212E-01 -0.48671E-01 -0.57535E-01 -0.67819E-01
 -0.76109E-01 -0.79524E-01 -0.77005E-01 -0.69638E-01 -0.60224E-01 -0.52051E-01
 -0.47068E-01 -0.44710E-01 -0.42576E-01 -0.38472E-01 -0.31906E-01 -0.23874E-01
 -0.15672E-01 -0.81234E-02 -0.16157E-02  0.36324E-02  0.74918E-02  0.99218E-02
  0.10934E-01  0.10635E-01  0.50464E-02  0.68061E-02  0.86560E-02  0.10350E-01
  0.11357E-01  0.11163E-01  0.94631E-02  0.61481E-02  0.12602E-02 -0.50407E-02
 -0.12507E-01 -0.20693E-01 -0.28667E-01 -0.35050E-01 -0.38957E-01 -0.41287E-01
 -0.44774E-01 -0.52082E-01 -0.63445E-01 -0.76109E-01 -0.85988E-01 -0.89882E-01
 -0.86693E-01 -0.77635E-01 -0.65860E-01 -0.55283E-01 -0.48544E-01 -0.45427E-01
 -0.43336E-01 -0.39559E-01 -0.33180E-01 -0.25083E-01 -0.16684E-01 -0.89628E-02
 -0.23811E-02  0.28389E-02  0.66012E-02  0.89243E-02  0.99055E-02  0.97455E-02
  0.54280E-02  0.69393E-02  0.85440E-02  0.10059E-01  0.10973E-01  0.10754E-01
  0.90571E-02  0.57402E-02  0.82467E-03 -0.55386E-02 -0.13098E-01 -0.21378E-01
 -0.29382E-01 -0.35690E-01 -0.39480E-01 -0.41841E-01 -0.45704E-01 -0.53762E-01
 -0.66052E-01 -0.79523E-01 -0.89882E-01 -0.93867E-01 -0.90404E-01 -0.80744E-01
 -0.68133E-01 -0.56687E-01 -0.49285E-01 -0.45843E-01 -0.43712E-01 -0.40007E-01
 -0.33665E-01 -0.25528E-01 -0.17054E-01 -0.92730E-02 -0.26747E-02  0.25189E-02
  0.62278E-02  0.84982E-02  0.94649E-02  0.93668E-02  0.52633E-02  0.70084E-02
  0.88250E-02  0.10453E-01  0.11361E-01  0.11053E-01  0.92382E-02  0.58177E-02
  0.83281E-03 -0.55599E-02 -0.13114E-01 -0.21379E-01 -0.29407E-01 -0.35813E-01
 -0.39737E-01 -0.42118E-01 -0.45699E-01 -0.53092E-01 -0.64457E-01 -0.77004E-01
 -0.86693E-01 -0.90404E-01 -0.87101E-01 -0.78010E-01 -0.66265E-01 -0.55744E-01
 -0.49045E-01 -0.45911E-01 -0.43738E-01 -0.39844E-01 -0.33354E-01 -0.25180E-01
 -0.16738E-01 -0.89937E-02 -0.24036E-02  0.28157E-02  0.65742E-02  0.88954E-02
  0.98778E-02  0.97215E-02  0.47412E-02  0.70561E-02  0.93896E-02  0.11315E-01
  0.12268E-01  0.11832E-01  0.98345E-02  0.62681E-02  0.12197E-02 -0.51382E-02
 -0.12570E-01 -0.20695E-01 -0.28713E-01 -0.35359E-01 -0.39664E-01 -0.42135E-01
 -0.44981E-01 -0.50601E-01 -0.59505E-01 -0.69637E-01 -0.77635E-01 -0.80743E-01
 -0.78010E-01 -0.70555E-01 -0.61159E-01 -0.53047E-01 -0.48090E-01 -0.45657E-01
 -0.43339E-01 -0.39001E-01 -0.32227E-01 -0.24053E-01 -0.15768E-01 -0.81727E-02
 -0.16438E-02  0.36080E-02  0.74635E-02  0.98898E-02  0.10900E-01  0.10601E-01
  0.42128E-02  0.71089E-02  0.99411E-02  0.12135E-01  0.13118E-01  0.12573E-01
  0.10450E-01  0.68230E-02  0.18181E-02 -0.43774E-02 -0.11536E-01 -0.19363E-01
 -0.27265E-01 -0.34185E-01 -0.39073E-01 -0.41891E-01 -0.44074E-01 -0.47606E-01
 -0.53354E-01 -0.60223E-01 -0.65860E-01 -0.68133E-01 -0.66265E-01 -0.61159E-01
 -0.54962E-01 -0.49913E-01 -0.46945E-01 -0.45078E-01 -0.42328E-01 -0.37345E-01
 -0.30269E-01 -0.22214E-01 -0.14245E-01 -0.69443E-02 -0.59633E-03  0.45895E-02
  0.84636E-02  0.10940E-01  0.11949E-01  0.11503E-01  0.38854E-02  0.71019E-02
  0.10161E-01  0.12437E-01  0.13404E-01  0.12829E-01  0.10735E-01  0.72321E-02
  0.24559E-02 -0.34028E-02 -0.10119E-01 -0.17467E-01 -0.25067E-01 -0.32137E-01
 -0.37673E-01 -0.41180E-01 -0.43269E-01 -0.45314E-01 -0.48313E-01 -0.52051E-01
 -0.55284E-01 -0.56688E-01 -0.55745E-01 -0.53048E-01 -0.49914E-01 -0.47488E-01
 -0.45859E-01 -0.43952E-01 -0.40422E-01 -0.34749E-01 -0.27522E-01 -0.19785E-01
 -0.12314E-01 -0.54736E-02  0.52094E-03  0.54569E-02  0.91696E-02  0.11550E-01
  0.12488E-01  0.11945E-01  0.36966E-02  0.69048E-02  0.98786E-02  0.12047E-01
  0.12968E-01  0.12464E-01  0.10568E-01  0.73830E-02  0.30283E-02 -0.23183E-02
 -0.84359E-02 -0.15139E-01 -0.22207E-01 -0.29153E-01 -0.35166E-01 -0.39536E-01
 -0.42218E-01 -0.43897E-01 -0.45408E-01 -0.47069E-01 -0.48546E-01 -0.49286E-01
 -0.49046E-01 -0.48091E-01 -0.46946E-01 -0.45859E-01 -0.44433E-01 -0.41810E-01
 -0.37354E-01 -0.31198E-01 -0.24117E-01 -0.16936E-01 -0.10129E-01 -0.39025E-02
  0.15611E-02  0.60507E-02  0.94084E-02  0.11531E-01  0.12317E-01  0.11722E-01
  0.34469E-02  0.64254E-02  0.91294E-02  0.11097E-01  0.11977E-01  0.11618E-01
  0.10032E-01  0.72962E-02  0.35059E-02 -0.11898E-02 -0.65903E-02 -0.12524E-01
 -0.18860E-01 -0.25339E-01 -0.31431E-01 -0.36471E-01 -0.40064E-01 -0.42328E-01
 -0.43732E-01 -0.44711E-01 -0.45428E-01 -0.45845E-01 -0.45912E-01 -0.45658E-01
 -0.45079E-01 -0.43953E-01 -0.41810E-01 -0.38197E-01 -0.33056E-01 -0.26849E-01
 -0.20268E-01 -0.13844E-01 -0.78218E-02 -0.23283E-02  0.24639E-02  0.63625E-02
  0.92342E-02  0.10994E-01  0.11564E-01  0.10930E-01  0.29974E-02  0.56724E-02
  0.80709E-02  0.98380E-02  0.10700E-01  0.10518E-01  0.92811E-02  0.70482E-02
  0.38979E-02 -0.58435E-04 -0.46637E-02 -0.97606E-02 -0.15238E-01 -0.20965E-01
 -0.26656E-01 -0.31854E-01 -0.36110E-01 -0.39222E-01 -0.41289E-01 -0.42577E-01
 -0.43337E-01 -0.43713E-01 -0.43739E-01 -0.43340E-01 -0.42329E-01 -0.40423E-01
 -0.37354E-01 -0.33056E-01 -0.27781E-01 -0.22012E-01 -0.16215E-01 -0.10669E-01
 -0.54974E-02 -0.81515E-03  0.32185E-02  0.64533E-02  0.87888E-02  0.10152E-01
  0.10486E-01  0.98074E-02  0.23386E-02  0.47242E-02  0.68587E-02  0.84660E-02
  0.93309E-02  0.93295E-02  0.84402E-02  0.67136E-02  0.42217E-02  0.10412E-02
 -0.27270E-02 -0.69561E-02 -0.11530E-01 -0.16354E-01 -0.21286E-01 -0.26076E-01
 -0.30396E-01 -0.33961E-01 -0.36644E-01 -0.38473E-01 -0.39560E-01 -0.40008E-01
 -0.39845E-01 -0.39002E-01 -0.37345E-01 -0.34750E-01 -0.31198E-01 -0.26849E-01
 -0.22012E-01 -0.17031E-01 -0.12157E-01 -0.75263E-02 -0.32375E-02  0.59069E-03
  0.38317E-02  0.63894E-02  0.81925E-02  0.91713E-02  0.92801E-02  0.85496E-02
  0.15362E-02  0.36683E-02  0.55918E-02  0.70824E-02  0.79698E-02  0.81496E-02
  0.75967E-02  0.63557E-02  0.44965E-02  0.20762E-02 -0.85064E-03 -0.42019E-02
 -0.78727E-02 -0.11765E-01 -0.15787E-01 -0.19810E-01 -0.23641E-01 -0.27054E-01
 -0.29849E-01 -0.31907E-01 -0.33181E-01 -0.33665E-01 -0.33355E-01 -0.32228E-01
 -0.30270E-01 -0.27522E-01 -0.24117E-01 -0.20268E-01 -0.16215E-01 -0.12156E-01
 -0.82220E-02 -0.45069E-02 -0.11117E-02  0.18584E-02  0.43241E-02  0.62339E-02
  0.75320E-02  0.81499E-02  0.80485E-02  0.72621E-02  0.67169E-03  0.25817E-02
  0.43370E-02  0.57487E-02  0.66797E-02  0.70444E-02  0.68151E-02  0.60258E-02
  0.47430E-02  0.30223E-02  0.89792E-03 -0.15884E-02 -0.43666E-02 -0.73510E-02
 -0.10460E-01 -0.13607E-01 -0.16681E-01 -0.19530E-01 -0.21982E-01 -0.23875E-01
 -0.25083E-01 -0.25529E-01 -0.25180E-01 -0.24053E-01 -0.22214E-01 -0.19785E-01
 -0.16935E-01 -0.13844E-01 -0.10669E-01 -0.75260E-02 -0.45067E-02 -0.16960E-02
  0.82003E-03  0.29740E-02  0.47269E-02  0.60465E-02  0.68784E-02  0.71579E-02
  0.68558E-02  0.60046E-02 -0.17496E-03  0.15411E-02  0.31626E-02  0.45254E-02
  0.55136E-02  0.60564E-02  0.61257E-02  0.57433E-02  0.49689E-02  0.38632E-02
  0.24634E-02  0.79238E-03 -0.11176E-02 -0.32176E-02 -0.54479E-02 -0.77425E-02
 -0.10024E-01 -0.12195E-01 -0.14127E-01 -0.15673E-01 -0.16685E-01 -0.17054E-01
 -0.16738E-01 -0.15767E-01 -0.14244E-01 -0.12313E-01 -0.10128E-01 -0.78211E-02
 -0.54967E-02 -0.32369E-02 -0.11113E-02  0.82025E-03  0.25111E-02  0.39317E-02
  0.50598E-02  0.58598E-02  0.62741E-02  0.62466E-02  0.57572E-02  0.48340E-02
 -0.93141E-03  0.61938E-03  0.21330E-02  0.34617E-02  0.45007E-02  0.51912E-02
  0.55130E-02  0.54842E-02  0.51539E-02  0.45798E-02  0.38072E-02  0.28630E-02
  0.17610E-02  0.51086E-03 -0.87157E-03 -0.23565E-02 -0.39003E-02 -0.54436E-02
 -0.68961E-02 -0.81237E-02 -0.89630E-02 -0.92729E-02 -0.89933E-02 -0.81720E-02
 -0.69434E-02 -0.54725E-02 -0.39013E-02 -0.23272E-02 -0.81414E-03  0.59156E-03
  0.18591E-02  0.29744E-02  0.39319E-02  0.47197E-02  0.53104E-02  0.56603E-02
  0.57159E-02  0.54314E-02  0.47872E-02  0.38006E-02 -0.15490E-02 -0.13317E-03
  0.12906E-02  0.25836E-02  0.36465E-02  0.44331E-02  0.49424E-02  0.52026E-02
  0.52537E-02  0.51376E-02  0.48975E-02  0.45720E-02  0.41771E-02  0.36978E-02
  0.31039E-02  0.23743E-02  0.15027E-02  0.49857E-03 -0.58572E-03 -0.16159E-02
 -0.23810E-02 -0.26743E-02 -0.24028E-02 -0.16427E-02 -0.59495E-03  0.52249E-03
  0.15627E-02  0.24654E-02  0.32199E-02  0.38329E-02  0.43250E-02  0.47276E-02
  0.50603E-02  0.53106E-02  0.54410E-02  0.54090E-02  0.51755E-02  0.47018E-02
  0.39566E-02  0.29365E-02 -0.20030E-02 -0.69172E-03  0.65481E-03  0.19002E-02
  0.29495E-02  0.37718E-02  0.43928E-02  0.48621E-02  0.52179E-02  0.54837E-02
  0.56900E-02  0.58781E-02  0.60689E-02  0.62351E-02  0.63161E-02  0.62472E-02
  0.59652E-02  0.54117E-02  0.45868E-02  0.36322E-02  0.28390E-02  0.25194E-02
  0.28168E-02  0.36095E-02  0.45914E-02  0.54589E-02  0.60528E-02  0.63644E-02
  0.64549E-02  0.63909E-02  0.62351E-02  0.60475E-02  0.58605E-02  0.56607E-02
  0.54093E-02  0.50747E-02  0.46338E-02  0.40484E-02  0.32658E-02  0.22547E-02
 -0.22709E-02 -0.10454E-02  0.22447E-03  0.13999E-02  0.23930E-02  0.31907E-02
  0.38461E-02  0.44334E-02  0.49989E-02  0.55558E-02  0.61200E-02  0.67227E-02
  0.73767E-02  0.80449E-02  0.86540E-02  0.91159E-02  0.93164E-02  0.91191E-02
  0.84605E-02  0.74915E-02  0.66014E-02  0.62285E-02  0.65754E-02  0.74653E-02
  0.84658E-02  0.91721E-02  0.94109E-02  0.92365E-02  0.87907E-02  0.81942E-02
  0.75334E-02  0.68795E-02  0.62750E-02  0.57166E-02  0.51759E-02  0.46340E-02
  0.40755E-02  0.34554E-02  0.26977E-02  0.17421E-02 -0.23250E-02 -0.11993E-02
 -0.34353E-04  0.10289E-02  0.19144E-02  0.26297E-02  0.32511E-02  0.38728E-02
  0.45515E-02  0.53001E-02  0.61238E-02  0.70354E-02  0.80278E-02  0.90536E-02
  0.10040E-01  0.10890E-01  0.11447E-01  0.11505E-01  0.10941E-01  0.99214E-02
  0.89245E-02  0.84990E-02  0.88967E-02  0.98918E-02  0.10942E-01  0.11552E-01
  0.11534E-01  0.10996E-01  0.10154E-01  0.91732E-02  0.81514E-02  0.71592E-02
  0.62476E-02  0.54321E-02  0.47024E-02  0.40488E-02  0.34556E-02  0.28680E-02
  0.21913E-02  0.13413E-02 -0.21604E-02 -0.11934E-02 -0.19929E-03  0.68603E-03
  0.14049E-02  0.19871E-02  0.25257E-02  0.31232E-02  0.38402E-02  0.46906E-02
  0.56710E-02  0.67740E-02  0.79707E-02  0.92062E-02  0.10413E-01  0.11492E-01
  0.12258E-01  0.12462E-01  0.11960E-01  0.10934E-01  0.99058E-02  0.94658E-02
  0.98792E-02  0.10902E-01  0.11951E-01  0.12491E-01  0.12320E-01  0.11567E-01
  0.10489E-01  0.92820E-02  0.80501E-02  0.68571E-02  0.57583E-02  0.47880E-02
  0.39572E-02  0.32662E-02  0.26980E-02  0.21914E-02  0.16426E-02  0.95237E-03
 -0.18233E-02 -0.11051E-02 -0.37026E-03  0.26318E-03  0.76181E-03  0.11766E-02
  0.16075E-02  0.21502E-02  0.28575E-02  0.37387E-02  0.47812E-02  0.59586E-02
  0.72243E-02  0.85185E-02  0.97776E-02  0.10901E-01  0.11702E-01  0.11947E-01
  0.11528E-01  0.10635E-01  0.97460E-02  0.93678E-02  0.97229E-02  0.10603E-01
  0.11505E-01  0.11948E-01  0.11725E-01  0.10933E-01  0.98098E-02  0.85517E-02
  0.72637E-02  0.60060E-02  0.48350E-02  0.38014E-02  0.29371E-02  0.22551E-02
  0.17424E-02  0.13414E-02  0.95243E-03  0.47204E-03 -0.35495E-03 -0.52577E-03
 -0.70491E-03 -0.95207E-03 -0.12270E-02 -0.14154E-02 -0.14139E-02 -0.11812E-02
 -0.72586E-03 -0.73019E-04  0.74617E-03  0.16857E-02  0.26830E-02  0.36669E-02
  0.45632E-02  0.52995E-02  0.58310E-02  0.61759E-02  0.64128E-02  0.66185E-02
  0.68054E-02  0.69380E-02  0.70064E-02  0.70535E-02  0.71058E-02  0.70984E-02
  0.69011E-02  0.64217E-02  0.56688E-02  0.47210E-02  0.36656E-02  0.25795E-02
  0.15395E-02  0.61832E-03 -0.13372E-03 -0.69187E-03 -0.10452E-02 -0.11990E-02
 -0.11930E-02 -0.11046E-02 -0.52553E-03 -0.70292E-03 -0.86293E-03 -0.10081E-02
 -0.10908E-02 -0.10379E-02 -0.79649E-03 -0.35221E-03  0.28464E-03  0.10974E-02
  0.20635E-02  0.31459E-02  0.42948E-02  0.54594E-02  0.65873E-02  0.75993E-02
  0.83741E-02  0.87884E-02  0.88071E-02  0.85494E-02  0.82596E-02  0.81867E-02
  0.84466E-02  0.89475E-02  0.94263E-02  0.95881E-02  0.92681E-02  0.84983E-02
  0.74371E-02  0.62411E-02  0.50025E-02  0.37753E-02  0.26169E-02  0.15870E-02
  0.72227E-03  0.32852E-04 -0.48133E-03 -0.82202E-03 -0.10011E-02 -0.10501E-02
 -0.70440E-03 -0.86267E-03 -0.98616E-03 -0.10160E-02 -0.89547E-03 -0.59612E-03
 -0.12160E-03  0.51014E-03  0.12854E-02  0.21986E-02  0.32429E-02  0.43995E-02
  0.56380E-02  0.69287E-02  0.82402E-02  0.94891E-02  0.10485E-01  0.10968E-01
  0.10788E-01  0.10096E-01  0.93508E-02  0.90735E-02  0.94975E-02  0.10400E-01
  0.11245E-01  0.11536E-01  0.11089E-01  0.10061E-01  0.87446E-02  0.73599E-02
  0.59991E-02  0.46957E-02  0.34886E-02  0.24181E-02  0.14989E-02  0.72060E-03
  0.71318E-04 -0.44456E-03 -0.80541E-03 -0.99102E-03 -0.95132E-03 -0.10076E-02
 -0.10158E-02 -0.88323E-03 -0.55734E-03 -0.48451E-04  0.59822E-03  0.13453E-02
  0.21810E-02  0.31115E-02  0.41478E-02  0.52915E-02  0.65294E-02  0.78419E-02
  0.92041E-02  0.10530E-01  0.11594E-01  0.12059E-01  0.11702E-01  0.10691E-01
  0.96208E-02  0.91850E-02  0.96917E-02  0.10833E-01  0.11905E-01  0.12291E-01
  0.11808E-01  0.10689E-01  0.92928E-02  0.78660E-02  0.64976E-02  0.52142E-02
  0.40455E-02  0.30150E-02  0.21169E-02  0.13247E-02  0.61707E-03 -0.17972E-05
 -0.49324E-03 -0.80314E-03 -0.12261E-02 -0.10903E-02 -0.89519E-03 -0.55726E-03
 -0.46843E-04  0.59923E-03  0.13229E-02  0.20901E-02  0.28977E-02  0.37587E-02
  0.46937E-02  0.57199E-02  0.68353E-02  0.80196E-02  0.92403E-02  0.10412E-01
  0.11316E-01  0.11617E-01  0.11088E-01  0.98989E-02  0.86759E-02  0.81499E-02
  0.86441E-02  0.98312E-02  0.10977E-01  0.11454E-01  0.11087E-01  0.10112E-01
  0.88747E-02  0.76052E-02  0.63879E-02  0.52540E-02  0.42311E-02  0.33303E-02
  0.25340E-02  0.18129E-02  0.11445E-02  0.52572E-03 -0.13717E-04 -0.41756E-03
 -0.14146E-02 -0.10375E-02 -0.59589E-03 -0.48410E-04  0.59920E-03  0.12984E-02
  0.20036E-02  0.27003E-02  0.33949E-02  0.40987E-02  0.48318E-02  0.56198E-02
  0.64698E-02  0.73585E-02  0.82418E-02  0.90377E-02  0.95679E-02  0.95643E-02
  0.88511E-02  0.75978E-02  0.63683E-02  0.58151E-02  0.62253E-02  0.73094E-02
  0.84209E-02  0.90058E-02  0.88988E-02  0.82788E-02  0.74192E-02  0.65024E-02
  0.56065E-02  0.47697E-02  0.40169E-02  0.33474E-02  0.27389E-02  0.21706E-02
  0.16286E-02  0.11021E-02  0.59640E-03  0.14395E-03 -0.14133E-02 -0.79616E-03
 -0.12151E-03  0.59814E-03  0.13227E-02  0.20034E-02  0.26157E-02  0.31644E-02
  0.36612E-02  0.41127E-02  0.45364E-02  0.49631E-02  0.54077E-02  0.58464E-02
  0.62285E-02  0.64827E-02  0.64870E-02  0.60723E-02  0.51463E-02  0.38752E-02
  0.27131E-02  0.21691E-02  0.24651E-02  0.33810E-02  0.44215E-02  0.51503E-02
  0.54103E-02  0.52946E-02  0.49742E-02  0.45710E-02  0.41494E-02  0.37494E-02
  0.33905E-02  0.30616E-02  0.27375E-02  0.24046E-02  0.20588E-02  0.16866E-02
  0.12721E-02  0.81841E-03 -0.11808E-02 -0.35206E-03  0.51007E-03  0.13451E-02
  0.20898E-02  0.27000E-02  0.31643E-02  0.34945E-02  0.37044E-02  0.38040E-02
  0.38150E-02  0.37704E-02  0.36861E-02  0.35392E-02  0.32839E-02  0.28724E-02
  0.22468E-02  0.13397E-02  0.14563E-03 -0.11730E-02 -0.22773E-02 -0.28106E-02
 -0.26195E-02 -0.18502E-02 -0.84025E-03  0.94415E-04  0.80372E-03  0.12951E-02
  0.16357E-02  0.18805E-02  0.20660E-02  0.22227E-02  0.23659E-02  0.24818E-02
  0.25432E-02  0.25334E-02  0.24468E-02  0.22698E-02  0.19801E-02  0.15643E-02
 -0.72571E-03  0.28457E-03  0.12851E-02  0.21806E-02  0.28972E-02  0.33944E-02
  0.36608E-02  0.37042E-02  0.35428E-02  0.32011E-02  0.27092E-02  0.20954E-02
  0.13679E-02  0.50918E-03 -0.50424E-03 -0.16801E-02 -0.30120E-02 -0.44817E-02
 -0.60250E-02 -0.74813E-02 -0.86025E-02 -0.91520E-02 -0.90295E-02 -0.83213E-02
 -0.72408E-02 -0.60107E-02 -0.47775E-02 -0.36024E-02 -0.25045E-02 -0.14957E-02
 -0.58274E-03  0.24053E-03  0.98211E-03  0.16339E-02  0.21713E-02  0.25681E-02
  0.28044E-02  0.28623E-02  0.27244E-02  0.23790E-02 -0.73179E-04  0.10970E-02
  0.21980E-02  0.31109E-02  0.37579E-02  0.40980E-02  0.41121E-02  0.38036E-02
  0.32009E-02  0.23440E-02  0.12660E-02 -0.16216E-04 -0.14985E-02 -0.31785E-02
 -0.50404E-02 -0.70462E-02 -0.91379E-02 -0.11238E-01 -0.13231E-01 -0.14951E-01
 -0.16199E-01 -0.16807E-01 -0.16704E-01 -0.15939E-01 -0.14652E-01 -0.13015E-01
 -0.11182E-01 -0.92672E-02 -0.73497E-02 -0.54949E-02 -0.37546E-02 -0.21598E-02
 -0.72249E-03  0.54917E-03  0.16369E-02  0.25098E-02  0.31317E-02  0.34743E-02
  0.35243E-02  0.32811E-02  0.74563E-03  0.20628E-02  0.32420E-02  0.41468E-02
  0.46927E-02  0.48309E-02  0.45356E-02  0.38144E-02  0.27088E-02  0.12657E-02
 -0.48816E-03 -0.25410E-02 -0.48729E-02 -0.74446E-02 -0.10202E-01 -0.13075E-01
 -0.15975E-01 -0.18781E-01 -0.21331E-01 -0.23437E-01 -0.24911E-01 -0.25615E-01
 -0.25490E-01 -0.24564E-01 -0.22942E-01 -0.20785E-01 -0.18270E-01 -0.15561E-01
 -0.12784E-01 -0.10040E-01 -0.74102E-02 -0.49575E-02 -0.27279E-02 -0.74944E-03
  0.95809E-03  0.23668E-02  0.34343E-02  0.41187E-02  0.44010E-02  0.42896E-02
  0.16848E-02  0.31448E-02  0.43983E-02  0.52902E-02  0.57185E-02  0.56185E-02
  0.49620E-02  0.37695E-02  0.20948E-02 -0.16642E-04 -0.25412E-02 -0.54512E-02
 -0.86910E-02 -0.12188E-01 -0.15872E-01 -0.19659E-01 -0.23425E-01 -0.26988E-01
 -0.30134E-01 -0.32649E-01 -0.34362E-01 -0.35163E-01 -0.35004E-01 -0.33899E-01
 -0.31920E-01 -0.29209E-01 -0.25964E-01 -0.22401E-01 -0.18713E-01 -0.15041E-01
 -0.11484E-01 -0.81206E-02 -0.50223E-02 -0.22515E-02  0.15179E-03  0.21595E-02
  0.37302E-02  0.48101E-02  0.53651E-02  0.54051E-02  0.26816E-02  0.42933E-02
  0.56363E-02  0.65277E-02  0.68337E-02  0.64683E-02  0.54063E-02  0.36849E-02
  0.13670E-02 -0.14991E-02 -0.48732E-02 -0.86911E-02 -0.12867E-01 -0.17322E-01
 -0.21984E-01 -0.26730E-01 -0.31348E-01 -0.35565E-01 -0.39126E-01 -0.41851E-01
 -0.43648E-01 -0.44480E-01 -0.44333E-01 -0.43190E-01 -0.41053E-01 -0.37979E-01
 -0.34123E-01 -0.29732E-01 -0.25086E-01 -0.20424E-01 -0.15898E-01 -0.11592E-01
 -0.75825E-02 -0.39539E-02 -0.77903E-03  0.18955E-02  0.40242E-02  0.55437E-02
  0.64020E-02  0.66034E-02  0.36651E-02  0.54575E-02  0.69267E-02  0.78399E-02
  0.80176E-02  0.73567E-02  0.58447E-02  0.35378E-02  0.50809E-03 -0.31793E-02
 -0.74452E-02 -0.12189E-01 -0.17322E-01 -0.22781E-01 -0.28450E-01 -0.34079E-01
 -0.39301E-01 -0.43769E-01 -0.47282E-01 -0.49811E-01 -0.51422E-01 -0.52188E-01
 -0.52133E-01 -0.51204E-01 -0.49299E-01 -0.46319E-01 -0.42266E-01 -0.37315E-01
 -0.31807E-01 -0.26131E-01 -0.20582E-01 -0.15305E-01 -0.10368E-01 -0.58502E-02
 -0.18493E-02  0.15514E-02  0.42875E-02  0.62863E-02  0.74785E-02  0.78524E-02
  0.45611E-02  0.65850E-02  0.82377E-02  0.92016E-02  0.92379E-02  0.82395E-02
  0.62266E-02  0.32823E-02 -0.50551E-03 -0.50414E-02 -0.10202E-01 -0.15872E-01
 -0.21984E-01 -0.28450E-01 -0.35008E-01 -0.41183E-01 -0.46468E-01 -0.50580E-01
 -0.53548E-01 -0.55579E-01 -0.56879E-01 -0.57556E-01 -0.57627E-01 -0.57035E-01
 -0.55641E-01 -0.53222E-01 -0.49557E-01 -0.44591E-01 -0.38580E-01 -0.32031E-01
 -0.25464E-01 -0.19192E-01 -0.13324E-01 -0.79180E-02 -0.30744E-02  0.10863E-02
  0.44695E-02  0.69895E-02  0.85540E-02  0.91174E-02  0.52971E-02  0.75967E-02
  0.94863E-02  0.10527E-01  0.10409E-01  0.90351E-02  0.64804E-02  0.28706E-02
 -0.16815E-02 -0.70472E-02 -0.13076E-01 -0.19659E-01 -0.26730E-01 -0.34079E-01
 -0.41183E-01 -0.47343E-01 -0.52087E-01 -0.55452E-01 -0.57835E-01 -0.59612E-01
 -0.60906E-01 -0.61642E-01 -0.61739E-01 -0.61207E-01 -0.60074E-01 -0.58215E-01