written on  1Apr2018 at 07:07:16
          8
        729
   1    1    1    1    1    1    1    1    1    1    1    1    1    1    1
   1    1    1    1    1    1    1    1    1    1    1    1    1    1    1
   1    1    1    1    1    1    1    1    1    1    1    1    1    1    1
   1    1    1    1    1    1    1    1    1    1    1    1    1    1    1
   1    1    1    1    1    1    1    1    1    1    1    1    1    1    1
   1    1    1    1    1    1    1    1    1    1    1    1    1    1    1
   1    1    1    1    1    1    1    1    1    1    1    1    1    1    1
   1    1    1    1    1    1    1    1    1    1    1    1    1    1    1
   1    1    1    1    1    1    1    1    1    1    1    1    1    1    1
   1    1    1    1    1    1    1    1    1    1    1    1    1    1    1
   1    1    1    1    1    1    1    1    1    1    1    1    1    1    1
   1    1    1    1    1    1    1    1    1    1    1    1    1    1    1
   1    1    1    1    1    1    1    1    1    1    1    1    1    1    1
   1    1    1    1    1    1    1    1    1    1    1    1    1    1    1
   1    1    1    1    1    1    1    1    1    1    1    1    1    1    1
   1    1    1    1    1    1    1    1    1    1    1    1    1    1    1
   1    1    1    1    1    1    1    1    1    1    1    1    1    1    1
   1    1    1    1    1    1    1    1    1    1    1    1    1    1    1
   1    1    1    1    1    1    1    1    1    1    1    1    1    1    1
   1    1    1    1    1    1    1    1    1    1    1    1    1    1    1
   1    1    1    1    1    1    1    1    1    1    1    1    1    1    1
   1    1    1    1    1    1    1    1    1    1    1    1    1    1    1
   1    1    1    1    1    1    1    1    1    1    1    1    1    1    1
   1    1    1    1    1    1    1    1    1    1    1    1    1    1    1
   1    1    1    1    1    1    1    1    1    1    1    1    1    1    1
   1    1    1    1    1    1    1    1    1    1    1    1    1    1    1
   1    1    1    1    1    1    1    1    1    1    1    1    1    1    1
   1    1    1    1    1    1    1    1    1    1    1    1    1    1    1
   1    1    1    1    1    1    1    1    1    1    1    1    1    1    1
   1    1    1    1    1    1    1    1    1    1    1    1    1    1    1
   1    1    1    1    1    1    1    1    1    1    1    1    1    1    1
   1    1    1    1    1    1    1    1    1    1    1    1    1    1    1
   1    1    1    1    1    1    1    1    1    1    1    1    1    1    1
   1    1    1    1    1    1    1    1    1    1    1    1    1    1    1
   1    1    1    1    1    1    1    1    1    1    1    1    1    1    1
   1    1    1    1    1    1    1    1    1    1    1    1    1    1    1
   1    1    1    1    1    1    1    1    1    1    1    1    1    1    1
   1    1    1    1    1    1    1    1    1    1    1    1    1    1    1
   1    1    1    1    1    1    1    1    1    1    1    1    1    1    1
   1    1    1    1    1    1    1    1    1    1    1    1    1    1    1
   1    1    1    1    1    1    1    1    1    1    1    1    1    1    1
   1    1    1    1    1    1    1    1    1    1    1    1    1    1    1
   1    1    1    1    1    1    1    1    1    1    1    1    1    1    1
   1    1    1    1    1    1    1    1    1    1    1    1    1    1    1
   1    1    1    1    1    1    1    1    1    1    1    1    1    1    1
   1    1    1    1    1    1    1    1    1    1    1    1    1    1    1
   1    1    1    1    1    1    1    1    1    1    1    1    1    1    1
   1    1    1    1    1    1    1    1    1    1    1    1    1    1    1
   1    1    1    1    1    1    1    1    1
-4	-4	-4	1	1	-0.001167	0.000000
-4	-4	-4	2	1	0.000141	0.000000
-4	-4	-4	3	1	0.000145	-0.000020
-4	-4	-4	4	1	0.000143	0.000020
-4	-4	-4	5	1	0.000000	0.000000
-4	-4	-4	6	1	0.000020	0.000020
-4	-4	-4	7	1	-0.000020	0.000000
-4	-4	-4	8	1	0.000000	-0.000020
-4	-4	-4	1	2	-0.000141	0.000000
-4	-4	-4	2	2	0.000280	0.000000
-4	-4	-4	3	2	0.000002	-0.000003
-4	-4	-4	4	2	0.000002	0.000003
-4	-4	-4	5	2	0.000020	0.000020
-4	-4	-4	6	2	0.000000	0.000000
-4	-4	-4	7	2	0.000024	-0.000003
-4	-4	-4	8	2	-0.000003	0.000024
-4	-4	-4	1	3	-0.000145	-0.000020
-4	-4	-4	2	3	0.000002	0.000003
-4	-4	-4	3	3	0.000280	0.000000
-4	-4	-4	4	3	0.000002	-0.000024
-4	-4	-4	5	3	-0.000020	0.000000
-4	-4	-4	6	3	-0.000024	0.000003
-4	-4	-4	7	3	0.000000	0.000000
-4	-4	-4	8	3	0.000003	-0.000003
-4	-4	-4	1	4	-0.000143	0.000020
-4	-4	-4	2	4	0.000002	-0.000003
-4	-4	-4	3	4	0.000002	0.000024
-4	-4	-4	4	4	0.000280	0.000000
-4	-4	-4	5	4	0.000000	-0.000020
-4	-4	-4	6	4	0.000003	-0.000024
-4	-4	-4	7	4	-0.000003	0.000003
-4	-4	-4	8	4	0.000000	0.000000
-4	-4	-4	1	5	0.000000	0.000000
-4	-4	-4	2	5	-0.000020	0.000020
-4	-4	-4	3	5	0.000020	0.000000
-4	-4	-4	4	5	0.000000	-0.000020
-4	-4	-4	5	5	-0.001167	0.000000
-4	-4	-4	6	5	0.000141	0.000000
-4	-4	-4	7	5	0.000145	0.000020
-4	-4	-4	8	5	0.000143	-0.000020
-4	-4	-4	1	6	-0.000020	0.000020
-4	-4	-4	2	6	0.000000	0.000000
-4	-4	-4	3	6	-0.000024	-0.000003
-4	-4	-4	4	6	0.000003	0.000024
-4	-4	-4	5	6	-0.000141	0.000000
-4	-4	-4	6	6	0.000280	0.000000
-4	-4	-4	7	6	0.000002	0.000003
-4	-4	-4	8	6	0.000002	-0.000003
-4	-4	-4	1	7	0.000020	0.000000
-4	-4	-4	2	7	0.000024	0.000003
-4	-4	-4	3	7	0.000000	0.000000
-4	-4	-4	4	7	-0.000003	-0.000003
-4	-4	-4	5	7	-0.000145	0.000020
-4	-4	-4	6	7	0.000002	-0.000003
-4	-4	-4	7	7	0.000280	0.000000
-4	-4	-4	8	7	0.000002	0.000024
-4	-4	-4	1	8	0.000000	-0.000020
-4	-4	-4	2	8	-0.000003	-0.000024
-4	-4	-4	3	8	0.000003	0.000003
-4	-4	-4	4	8	0.000000	0.000000
-4	-4	-4	5	8	-0.000143	-0.000020
-4	-4	-4	6	8	0.000002	0.000003
-4	-4	-4	7	8	0.000002	-0.000024
-4	-4	-4	8	8	0.000280	0.000000
-4	-4	-3	1	1	-0.000722	0.000000
-4	-4	-3	2	1	0.000423	0.000000
-4	-4	-3	3	1	0.000008	0.000000
-4	-4	-3	4	1	0.000008	0.000000
-4	-4	-3	5	1	0.000000	0.000000
-4	-4	-3	6	1	-0.000002	-0.000002
-4	-4	-3	7	1	-0.000060	-0.000004
-4	-4	-3	8	1	-0.000004	-0.000059
-4	-4	-3	1	2	-0.000423	0.000000
-4	-4	-3	2	2	0.000264	0.000000
-4	-4	-3	3	2	-0.000066	0.000015
-4	-4	-3	4	2	-0.000065	-0.000015
-4	-4	-3	5	2	-0.000002	-0.000002
-4	-4	-3	6	2	0.000000	0.000000
-4	-4	-3	7	2	-0.000012	0.000009
-4	-4	-3	8	2	0.000009	-0.000012
-4	-4	-3	1	3	-0.000008	0.000000
-4	-4	-3	2	3	-0.000066	-0.000015
-4	-4	-3	3	3	0.000247	0.000000
-4	-4	-3	4	3	-0.000088	0.000044
-4	-4	-3	5	3	-0.000060	-0.000004
-4	-4	-3	6	3	0.000012	-0.000009
-4	-4	-3	7	3	0.000000	0.000000
-4	-4	-3	8	3	-0.000021	0.000021
-4	-4	-3	1	4	-0.000008	0.000000
-4	-4	-3	2	4	-0.000065	0.000015
-4	-4	-3	3	4	-0.000088	-0.000044
-4	-4	-3	4	4	0.000249	0.000000
-4	-4	-3	5	4	-0.000004	-0.000059
-4	-4	-3	6	4	-0.000009	0.000012
-4	-4	-3	7	4	0.000021	-0.000021
-4	-4	-3	8	4	0.000000	0.000000
-4	-4	-3	1	5	0.000000	0.000000
-4	-4	-3	2	5	0.000002	-0.000002
-4	-4	-3	3	5	0.000060	-0.000004
-4	-4	-3	4	5	0.000004	-0.000059
-4	-4	-3	5	5	-0.000722	0.000000
-4	-4	-3	6	5	0.000423	0.000000
-4	-4	-3	7	5	0.000008	0.000000
-4	-4	-3	8	5	0.000008	0.000000
-4	-4	-3	1	6	0.000002	-0.000002
-4	-4	-3	2	6	0.000000	0.000000
-4	-4	-3	3	6	0.000012	0.000009
-4	-4	-3	4	6	-0.000009	-0.000012
-4	-4	-3	5	6	-0.000423	0.000000
-4	-4	-3	6	6	0.000264	0.000000
-4	-4	-3	7	6	-0.000066	-0.000015
-4	-4	-3	8	6	-0.000065	0.000015
-4	-4	-3	1	7	0.000060	-0.000004
-4	-4	-3	2	7	-0.000012	-0.000009
-4	-4	-3	3	7	0.000000	0.000000
-4	-4	-3	4	7	0.000021	0.000021
-4	-4	-3	5	7	-0.000008	0.000000
-4	-4	-3	6	7	-0.000066	0.000015
-4	-4	-3	7	7	0.000247	0.000000
-4	-4	-3	8	7	-0.000088	-0.000044
-4	-4	-3	1	8	0.000004	-0.000059
-4	-4	-3	2	8	0.000009	0.000012
-4	-4	-3	3	8	-0.000021	-0.000021
-4	-4	-3	4	8	0.000000	0.000000
-4	-4	-3	5	8	-0.000008	0.000000
-4	-4	-3	6	8	-0.000065	-0.000015
-4	-4	-3	7	8	-0.000088	0.000044
-4	-4	-3	8	8	0.000249	0.000000
-4	-4	-2	1	1	-0.000604	0.000000
-4	-4	-2	2	1	0.000768	0.000000
-4	-4	-2	3	1	0.000041	0.000014
-4	-4	-2	4	1	0.000040	-0.000014
-4	-4	-2	5	1	0.000000	0.000000
-4	-4	-2	6	1	-0.000006	-0.000006
-4	-4	-2	7	1	-0.000128	0.000011
-4	-4	-2	8	1	0.000012	-0.000128
-4	-4	-2	1	2	-0.000768	0.000000
-4	-4	-2	2	2	0.000093	0.000000
-4	-4	-2	3	2	0.000051	0.000007
-4	-4	-2	4	2	0.000051	-0.000007
-4	-4	-2	5	2	-0.000006	-0.000006
-4	-4	-2	6	2	0.000000	0.000000
-4	-4	-2	7	2	-0.000027	-0.000007
-4	-4	-2	8	2	-0.000008	-0.000027
-4	-4	-2	1	3	-0.000041	0.000014
-4	-4	-2	2	3	0.000051	-0.000007
-4	-4	-2	3	3	0.000267	0.000000
-4	-4	-2	4	3	-0.000010	0.000075
-4	-4	-2	5	3	-0.000128	0.000011
-4	-4	-2	6	3	0.000027	0.000007
-4	-4	-2	7	3	0.000000	0.000000
-4	-4	-2	8	3	-0.000032	0.000033
-4	-4	-2	1	4	-0.000040	-0.000014
-4	-4	-2	2	4	0.000051	0.000007
-4	-4	-2	3	4	-0.000010	-0.000075
-4	-4	-2	4	4	0.000267	0.000000
-4	-4	-2	5	4	0.000012	-0.000128
-4	-4	-2	6	4	0.000008	0.000027
-4	-4	-2	7	4	0.000032	-0.000033
-4	-4	-2	8	4	0.000000	0.000000
-4	-4	-2	1	5	0.000000	0.000000
-4	-4	-2	2	5	0.000006	-0.000006
-4	-4	-2	3	5	0.000128	0.000011
-4	-4	-2	4	5	-0.000012	-0.000128
-4	-4	-2	5	5	-0.000604	0.000000
-4	-4	-2	6	5	0.000768	0.000000
-4	-4	-2	7	5	0.000041	-0.000014
-4	-4	-2	8	5	0.000040	0.000014
-4	-4	-2	1	6	0.000006	-0.000006
-4	-4	-2	2	6	0.000000	0.000000
-4	-4	-2	3	6	0.000027	-0.000007
-4	-4	-2	4	6	0.000008	-0.000027
-4	-4	-2	5	6	-0.000768	0.000000
-4	-4	-2	6	6	0.000093	0.000000
-4	-4	-2	7	6	0.000051	-0.000007
-4	-4	-2	8	6	0.000051	0.000007
-4	-4	-2	1	7	0.000128	0.000011
-4	-4	-2	2	7	-0.000027	0.000007
-4	-4	-2	3	7	0.000000	0.000000
-4	-4	-2	4	7	0.000032	0.000033
-4	-4	-2	5	7	-0.000041	-0.000014
-4	-4	-2	6	7	0.000051	0.000007
-4	-4	-2	7	7	0.000267	0.000000
-4	-4	-2	8	7	-0.000010	-0.000075
-4	-4	-2	1	8	-0.000012	-0.000128
-4	-4	-2	2	8	-0.000008	0.000027
-4	-4	-2	3	8	-0.000032	-0.000033
-4	-4	-2	4	8	0.000000	0.000000
-4	-4	-2	5	8	-0.000040	0.000014
-4	-4	-2	6	8	0.000051	-0.000007
-4	-4	-2	7	8	-0.000010	0.000075
-4	-4	-2	8	8	0.000267	0.000000
-4	-4	-1	1	1	-0.001550	0.000000
-4	-4	-1	2	1	0.000868	0.000000
-4	-4	-1	3	1	0.000363	-0.000039
-4	-4	-1	4	1	0.000359	0.000040
-4	-4	-1	5	1	0.000000	0.000000
-4	-4	-1	6	1	0.000006	0.000006
-4	-4	-1	7	1	-0.000127	0.000004
-4	-4	-1	8	1	0.000004	-0.000127
-4	-4	-1	1	2	-0.000868	0.000000
-4	-4	-1	2	2	-0.000302	0.000000
-4	-4	-1	3	2	0.000141	-0.000009
-4	-4	-1	4	2	0.000140	0.000009
-4	-4	-1	5	2	0.000006	0.000006
-4	-4	-1	6	2	0.000000	0.000000
-4	-4	-1	7	2	-0.000009	-0.000024
-4	-4	-1	8	2	-0.000024	-0.000009
-4	-4	-1	1	3	-0.000363	-0.000039
-4	-4	-1	2	3	0.000141	0.000009
-4	-4	-1	3	3	0.001019	0.000000
-4	-4	-1	4	3	0.000154	0.000127
-4	-4	-1	5	3	-0.000127	0.000004
-4	-4	-1	6	3	0.000009	0.000024
-4	-4	-1	7	3	0.000000	0.000000
-4	-4	-1	8	3	-0.000033	0.000034
-4	-4	-1	1	4	-0.000359	0.000040
-4	-4	-1	2	4	0.000140	-0.000009
-4	-4	-1	3	4	0.000154	-0.000127
-4	-4	-1	4	4	0.001015	0.000000
-4	-4	-1	5	4	0.000004	-0.000127
-4	-4	-1	6	4	0.000024	0.000009
-4	-4	-1	7	4	0.000033	-0.000034
-4	-4	-1	8	4	0.000000	0.000000
-4	-4	-1	1	5	0.000000	0.000000
-4	-4	-1	2	5	-0.000006	0.000006
-4	-4	-1	3	5	0.000127	0.000004
-4	-4	-1	4	5	-0.000004	-0.000127
-4	-4	-1	5	5	-0.001550	0.000000
-4	-4	-1	6	5	0.000868	0.000000
-4	-4	-1	7	5	0.000363	0.000039
-4	-4	-1	8	5	0.000359	-0.000040
-4	-4	-1	1	6	-0.000006	0.000006
-4	-4	-1	2	6	0.000000	0.000000
-4	-4	-1	3	6	0.000009	-0.000024
-4	-4	-1	4	6	0.000024	-0.000009
-4	-4	-1	5	6	-0.000868	0.000000
-4	-4	-1	6	6	-0.000302	0.000000
-4	-4	-1	7	6	0.000141	0.000009
-4	-4	-1	8	6	0.000140	-0.000009
-4	-4	-1	1	7	0.000127	0.000004
-4	-4	-1	2	7	-0.000009	0.000024
-4	-4	-1	3	7	0.000000	0.000000
-4	-4	-1	4	7	0.000033	0.000034
-4	-4	-1	5	7	-0.000363	0.000039
-4	-4	-1	6	7	0.000141	-0.000009
-4	-4	-1	7	7	0.001019	0.000000
-4	-4	-1	8	7	0.000154	-0.000127
-4	-4	-1	1	8	-0.000004	-0.000127
-4	-4	-1	2	8	-0.000024	0.000009
-4	-4	-1	3	8	-0.000033	-0.000034
-4	-4	-1	4	8	0.000000	0.000000
-4	-4	-1	5	8	-0.000359	-0.000040
-4	-4	-1	6	8	0.000140	0.000009
-4	-4	-1	7	8	0.000154	0.000127
-4	-4	-1	8	8	0.001015	0.000000
-4	-4	0	1	1	-0.002745	0.000000
-4	-4	0	2	1	0.000025	0.000000
-4	-4	0	3	1	0.000626	-0.000040
-4	-4	0	4	1	0.000620	0.000041
-4	-4	0	5	1	0.000000	0.000000
-4	-4	0	6	1	0.000013	0.000013
-4	-4	0	7	1	0.000008	-0.000003
-4	-4	0	8	1	-0.000003	0.000008
-4	-4	0	1	2	-0.000025	0.000000
-4	-4	0	2	2	-0.000568	0.000000
-4	-4	0	3	2	0.000000	0.000000
-4	-4	0	4	2	0.000001	0.000000
-4	-4	0	5	2	0.000013	0.000013
-4	-4	0	6	2	0.000000	0.000000
-4	-4	0	7	2	0.000003	-0.000007
-4	-4	0	8	2	-0.000008	0.000003
-4	-4	0	1	3	-0.000626	-0.000040
-4	-4	0	2	3	0.000000	0.000000
-4	-4	0	3	3	0.001445	0.000000
-4	-4	0	4	3	0.000047	0.000194
-4	-4	0	5	3	0.000008	-0.000003
-4	-4	0	6	3	-0.000003	0.000007
-4	-4	0	7	3	0.000000	0.000000
-4	-4	0	8	3	-0.000001	0.000001
-4	-4	0	1	4	-0.000620	0.000041
-4	-4	0	2	4	0.000001	0.000000
-4	-4	0	3	4	0.000047	-0.000194
-4	-4	0	4	4	0.001445	0.000000
-4	-4	0	5	4	-0.000003	0.000008
-4	-4	0	6	4	0.000008	-0.000003
-4	-4	0	7	4	0.000001	-0.000001
-4	-4	0	8	4	0.000000	0.000000
-4	-4	0	1	5	0.000000	0.000000
-4	-4	0	2	5	-0.000013	0.000013
-4	-4	0	3	5	-0.000008	-0.000003
-4	-4	0	4	5	0.000003	0.000008
-4	-4	0	5	5	-0.002745	0.000000
-4	-4	0	6	5	0.000025	0.000000
-4	-4	0	7	5	0.000626	0.000040
-4	-4	0	8	5	0.000620	-0.000041
-4	-4	0	1	6	-0.000013	0.000013
-4	-4	0	2	6	0.000000	0.000000
-4	-4	0	3	6	-0.000003	-0.000007
-4	-4	0	4	6	0.000008	0.000003
-4	-4	0	5	6	-0.000025	0.000000
-4	-4	0	6	6	-0.000568	0.000000
-4	-4	0	7	6	0.000000	0.000000
-4	-4	0	8	6	0.000001	0.000000
-4	-4	0	1	7	-0.000008	-0.000003
-4	-4	0	2	7	0.000003	0.000007
-4	-4	0	3	7	0.000000	0.000000
-4	-4	0	4	7	0.000001	0.000001
-4	-4	0	5	7	-0.000626	0.000040
-4	-4	0	6	7	0.000000	0.000000
-4	-4	0	7	7	0.001445	0.000000
-4	-4	0	8	7	0.000047	-0.000194
-4	-4	0	1	8	0.000003	0.000008
-4	-4	0	2	8	-0.000008	-0.000003
-4	-4	0	3	8	-0.000001	-0.000001
-4	-4	0	4	8	0.000000	0.000000
-4	-4	0	5	8	-0.000620	-0.000041
-4	-4	0	6	8	0.000001	0.000000
-4	-4	0	7	8	0.000047	0.000194
-4	-4	0	8	8	0.001445	0.000000
-4	-4	1	1	1	-0.001578	0.000000
-4	-4	1	2	1	-0.000809	0.000000
-4	-4	1	3	1	0.000344	-0.000033
-4	-4	1	4	1	0.000341	0.000034
-4	-4	1	5	1	0.000000	0.000000
-4	-4	1	6	1	0.000004	0.000004
-4	-4	1	7	1	0.000125	-0.000004
-4	-4	1	8	1	-0.000004	0.000125
-4	-4	1	1	2	0.000809	0.000000
-4	-4	1	2	2	-0.000344	0.000000
-4	-4	1	3	2	-0.000091	0.000006
-4	-4	1	4	2	-0.000090	-0.000006
-4	-4	1	5	2	0.000004	0.000004
-4	-4	1	6	2	0.000000	0.000000
-4	-4	1	7	2	0.000002	-0.000025
-4	-4	1	8	2	-0.000025	0.000002
-4	-4	1	1	3	-0.000344	-0.000033
-4	-4	1	2	3	-0.000091	-0.000006
-4	-4	1	3	3	0.000926	0.000000
-4	-4	1	4	3	0.000234	0.000112
-4	-4	1	5	3	0.000125	-0.000004
-4	-4	1	6	3	-0.000002	0.000025
-4	-4	1	7	3	0.000000	0.000000
-4	-4	1	8	3	0.000013	-0.000013
-4	-4	1	1	4	-0.000341	0.000034
-4	-4	1	2	4	-0.000090	0.000006
-4	-4	1	3	4	0.000234	-0.000112
-4	-4	1	4	4	0.000921	0.000000
-4	-4	1	5	4	-0.000004	0.000125
-4	-4	1	6	4	0.000025	-0.000002
-4	-4	1	7	4	-0.000013	0.000013
-4	-4	1	8	4	0.000000	0.000000
-4	-4	1	1	5	0.000000	0.000000
-4	-4	1	2	5	-0.000004	0.000004
-4	-4	1	3	5	-0.000125	-0.000004
-4	-4	1	4	5	0.000004	0.000125
-4	-4	1	5	5	-0.001578	0.000000
-4	-4	1	6	5	-0.000809	0.000000
-4	-4	1	7	5	0.000344	0.000033
-4	-4	1	8	5	0.000341	-0.000034
-4	-4	1	1	6	-0.000004	0.000004
-4	-4	1	2	6	0.000000	0.000000
-4	-4	1	3	6	-0.000002	-0.000025
-4	-4	1	4	6	0.000025	0.000002
-4	-4	1	5	6	0.000809	0.000000
-4	-4	1	6	6	-0.000344	0.000000
-4	-4	1	7	6	-0.000091	-0.000006
-4	-4	1	8	6	-0.000090	0.000006
-4	-4	1	1	7	-0.000125	-0.000004
-4	-4	1	2	7	0.000002	0.000025
-4	-4	1	3	7	0.000000	0.000000
-4	-4	1	4	7	-0.000013	-0.000013
-4	-4	1	5	7	-0.000344	0.000033
-4	-4	1	6	7	-0.000091	0.000006
-4	-4	1	7	7	0.000926	0.000000
-4	-4	1	8	7	0.000234	-0.000112
-4	-4	1	1	8	0.000004	0.000125
-4	-4	1	2	8	-0.000025	-0.000002
-4	-4	1	3	8	0.000013	0.000013
-4	-4	1	4	8	0.000000	0.000000
-4	-4	1	5	8	-0.000341	-0.000034
-4	-4	1	6	8	-0.000090	-0.000006
-4	-4	1	7	8	0.000234	0.000112
-4	-4	1	8	8	0.000921	0.000000
-4	-4	2	1	1	-0.000617	0.000000
-4	-4	2	2	1	-0.000742	0.000000
-4	-4	2	3	1	0.000041	0.000025
-4	-4	2	4	1	0.000041	-0.000025
-4	-4	2	5	1	0.000000	0.000000
-4	-4	2	6	1	-0.000012	-0.000011
-4	-4	2	7	1	0.000127	-0.000011
-4	-4	2	8	1	-0.000012	0.000127
-4	-4	2	1	2	0.000742	0.000000
-4	-4	2	2	2	0.000053	0.000000
-4	-4	2	3	2	-0.000043	-0.000008
-4	-4	2	4	2	-0.000043	0.000008
-4	-4	2	5	2	-0.000012	-0.000011
-4	-4	2	6	2	0.000000	0.000000
-4	-4	2	7	2	-0.000017	-0.000011
-4	-4	2	8	2	-0.000011	-0.000017
-4	-4	2	1	3	-0.000041	0.000025
-4	-4	2	2	3	-0.000043	0.000008
-4	-4	2	3	3	0.000293	0.000000
-4	-4	2	4	3	-0.000026	0.000086
-4	-4	2	5	3	0.000127	-0.000011
-4	-4	2	6	3	0.000017	0.000011
-4	-4	2	7	3	0.000000	0.000000
-4	-4	2	8	3	0.000035	-0.000036
-4	-4	2	1	4	-0.000041	-0.000025
-4	-4	2	2	4	-0.000043	-0.000008
-4	-4	2	3	4	-0.000026	-0.000086
-4	-4	2	4	4	0.000293	0.000000
-4	-4	2	5	4	-0.000012	0.000127
-4	-4	2	6	4	0.000011	0.000017
-4	-4	2	7	4	-0.000035	0.000036
-4	-4	2	8	4	0.000000	0.000000
-4	-4	2	1	5	0.000000	0.000000
-4	-4	2	2	5	0.000012	-0.000011
-4	-4	2	3	5	-0.000127	-0.000011
-4	-4	2	4	5	0.000012	0.000127
-4	-4	2	5	5	-0.000617	0.000000
-4	-4	2	6	5	-0.000742	0.000000
-4	-4	2	7	5	0.000041	-0.000025
-4	-4	2	8	5	0.000041	0.000025
-4	-4	2	1	6	0.000012	-0.000011
-4	-4	2	2	6	0.000000	0.000000
-4	-4	2	3	6	0.000017	-0.000011
-4	-4	2	4	6	0.000011	-0.000017
-4	-4	2	5	6	0.000742	0.000000
-4	-4	2	6	6	0.000053	0.000000
-4	-4	2	7	6	-0.000043	0.000008
-4	-4	2	8	6	-0.000043	-0.000008
-4	-4	2	1	7	-0.000127	-0.000011
-4	-4	2	2	7	-0.000017	0.000011
-4	-4	2	3	7	0.000000	0.000000
-4	-4	2	4	7	-0.000035	-0.000036
-4	-4	2	5	7	-0.000041	-0.000025
-4	-4	2	6	7	-0.000043	-0.000008
-4	-4	2	7	7	0.000293	0.000000
-4	-4	2	8	7	-0.000026	-0.000086
-4	-4	2	1	8	0.000012	0.000127
-4	-4	2	2	8	-0.000011	0.000017
-4	-4	2	3	8	0.000035	0.000036
-4	-4	2	4	8	0.000000	0.000000
-4	-4	2	5	8	-0.000041	0.000025
-4	-4	2	6	8	-0.000043	0.000008
-4	-4	2	7	8	-0.000026	0.000086
-4	-4	2	8	8	0.000293	0.000000
-4	-4	3	1	1	-0.000735	0.000000
-4	-4	3	2	1	-0.000424	0.000000
-4	-4	3	3	1	0.000011	0.000014
-4	-4	3	4	1	0.000011	-0.000014
-4	-4	3	5	1	0.000000	0.000000
-4	-4	3	6	1	-0.000002	-0.000002
-4	-4	3	7	1	0.000063	0.000005
-4	-4	3	8	1	0.000005	0.000063
-4	-4	3	1	2	0.000424	0.000000
-4	-4	3	2	2	0.000250	0.000000
-4	-4	3	3	2	0.000043	-0.000014
-4	-4	3	4	2	0.000042	0.000014
-4	-4	3	5	2	-0.000002	-0.000002
-4	-4	3	6	2	0.000000	0.000000
-4	-4	3	7	2	-0.000007	0.000008
-4	-4	3	8	2	0.000008	-0.000007
-4	-4	3	1	3	-0.000011	0.000014
-4	-4	3	2	3	0.000043	0.000014
-4	-4	3	3	3	0.000197	0.000000
-4	-4	3	4	3	-0.000073	0.000040
-4	-4	3	5	3	0.000063	0.000005
-4	-4	3	6	3	0.000007	-0.000008
-4	-4	3	7	3	0.000000	0.000000
-4	-4	3	8	3	0.000024	-0.000025
-4	-4	3	1	4	-0.000011	-0.000014
-4	-4	3	2	4	0.000042	-0.000014
-4	-4	3	3	4	-0.000073	-0.000040
-4	-4	3	4	4	0.000198	0.000000
-4	-4	3	5	4	0.000005	0.000063
-4	-4	3	6	4	-0.000008	0.000007
-4	-4	3	7	4	-0.000024	0.000025
-4	-4	3	8	4	0.000000	0.000000
-4	-4	3	1	5	0.000000	0.000000
-4	-4	3	2	5	0.000002	-0.000002
-4	-4	3	3	5	-0.000063	0.000005
-4	-4	3	4	5	-0.000005	0.000063
-4	-4	3	5	5	-0.000735	0.000000
-4	-4	3	6	5	-0.000424	0.000000
-4	-4	3	7	5	0.000011	-0.000014
-4	-4	3	8	5	0.000011	0.000014
-4	-4	3	1	6	0.000002	-0.000002
-4	-4	3	2	6	0.000000	0.000000
-4	-4	3	3	6	0.000007	0.000008
-4	-4	3	4	6	-0.000008	-0.000007
-4	-4	3	5	6	0.000424	0.000000
-4	-4	3	6	6	0.000250	0.000000
-4	-4	3	7	6	0.000043	0.000014
-4	-4	3	8	6	0.000042	-0.000014
-4	-4	3	1	7	-0.000063	0.000005
-4	-4	3	2	7	-0.000007	-0.000008
-4	-4	3	3	7	0.000000	0.000000
-4	-4	3	4	7	-0.000024	-0.000025
-4	-4	3	5	7	-0.000011	-0.000014
-4	-4	3	6	7	0.000043	-0.000014
-4	-4	3	7	7	0.000197	0.000000
-4	-4	3	8	7	-0.000073	-0.000040
-4	-4	3	1	8	-0.000005	0.000063
-4	-4	3	2	8	0.000008	0.000007
-4	-4	3	3	8	0.000024	0.000025
-4	-4	3	4	8	0.000000	0.000000
-4	-4	3	5	8	-0.000011	0.000014
-4	-4	3	6	8	0.000042	0.000014
-4	-4	3	7	8	-0.000073	0.000040
-4	-4	3	8	8	0.000198	0.000000
-4	-4	4	1	1	-0.001166	0.000000
-4	-4	4	2	1	-0.000176	0.000000
-4	-4	4	3	1	0.000170	-0.000020
-4	-4	4	4	1	0.000168	0.000020
-4	-4	4	5	1	0.000000	0.000000
-4	-4	4	6	1	0.000021	0.000021
-4	-4	4	7	1	0.000019	0.000005
-4	-4	4	8	1	0.000005	0.000019
-4	-4	4	1	2	0.000176	0.000000
-4	-4	4	2	2	0.000290	0.000000
-4	-4	4	3	2	-0.000040	0.000001
-4	-4	4	4	2	-0.000040	-0.000001
-4	-4	4	5	2	0.000021	0.000021
-4	-4	4	6	2	0.000000	0.000000
-4	-4	4	7	2	0.000023	-0.000002
-4	-4	4	8	2	-0.000002	0.000022
-4	-4	4	1	3	-0.000170	-0.000020
-4	-4	4	2	3	-0.000040	-0.000001
-4	-4	4	3	3	0.000261	0.000000
-4	-4	4	4	3	0.000030	-0.000026
-4	-4	4	5	3	0.000019	0.000005
-4	-4	4	6	3	-0.000023	0.000002
-4	-4	4	7	3	0.000000	0.000000
-4	-4	4	8	3	0.000003	-0.000003
-4	-4	4	1	4	-0.000168	0.000020
-4	-4	4	2	4	-0.000040	0.000001
-4	-4	4	3	4	0.000030	0.000026
-4	-4	4	4	4	0.000260	0.000000
-4	-4	4	5	4	0.000005	0.000019
-4	-4	4	6	4	0.000002	-0.000022
-4	-4	4	7	4	-0.000003	0.000003
-4	-4	4	8	4	0.000000	0.000000
-4	-4	4	1	5	0.000000	0.000000
-4	-4	4	2	5	-0.000021	0.000021
-4	-4	4	3	5	-0.000019	0.000005
-4	-4	4	4	5	-0.000005	0.000019
-4	-4	4	5	5	-0.001166	0.000000
-4	-4	4	6	5	-0.000176	0.000000
-4	-4	4	7	5	0.000170	0.000020
-4	-4	4	8	5	0.000168	-0.000020
-4	-4	4	1	6	-0.000021	0.000021
-4	-4	4	2	6	0.000000	0.000000
-4	-4	4	3	6	-0.000023	-0.000002
-4	-4	4	4	6	0.000002	0.000022
-4	-4	4	5	6	0.000176	0.000000
-4	-4	4	6	6	0.000290	0.000000
-4	-4	4	7	6	-0.000040	-0.000001
-4	-4	4	8	6	-0.000040	0.000001
-4	-4	4	1	7	-0.000019	0.000005
-4	-4	4	2	7	0.000023	0.000002
-4	-4	4	3	7	0.000000	0.000000
-4	-4	4	4	7	-0.000003	-0.000003
-4	-4	4	5	7	-0.000170	0.000020
-4	-4	4	6	7	-0.000040	0.000001
-4	-4	4	7	7	0.000261	0.000000
-4	-4	4	8	7	0.000030	0.000026
-4	-4	4	1	8	-0.000005	0.000019
-4	-4	4	2	8	-0.000002	-0.000022
-4	-4	4	3	8	0.000003	0.000003
-4	-4	4	4	8	0.000000	0.000000
-4	-4	4	5	8	-0.000168	-0.000020
-4	-4	4	6	8	-0.000040	-0.000001
-4	-4	4	7	8	0.000030	-0.000026
-4	-4	4	8	8	0.000260	0.000000
-4	-3	-4	1	1	-0.000723	0.000000
-4	-3	-4	2	1	0.000003	-0.000004
-4	-3	-4	3	1	0.000008	-0.000060
-4	-3	-4	4	1	0.000423	-0.000002
-4	-3	-4	5	1	0.000000	0.000000
-4	-3	-4	6	1	0.000000	0.000059
-4	-3	-4	7	1	0.000001	0.000004
-4	-3	-4	8	1	0.000000	0.000003
-4	-3	-4	1	2	-0.000003	-0.000004
-4	-3	-4	2	2	0.000252	0.000000
-4	-3	-4	3	2	-0.000087	0.000020
-4	-3	-4	4	2	-0.000069	-0.000009
-4	-3	-4	5	2	0.000000	0.000059
-4	-3	-4	6	2	0.000000	0.000000
-4	-3	-4	7	2	-0.000045	0.000021
-4	-3	-4	8	2	0.000015	-0.000012
-4	-3	-4	1	3	-0.000008	-0.000060
-4	-3	-4	2	3	-0.000087	-0.000020
-4	-3	-4	3	3	0.000247	0.000000
-4	-3	-4	4	3	-0.000067	0.000012
-4	-3	-4	5	3	0.000001	0.000004
-4	-3	-4	6	3	0.000045	-0.000021
-4	-3	-4	7	3	0.000000	0.000000
-4	-3	-4	8	3	-0.000015	0.000009
-4	-3	-4	1	4	-0.000423	-0.000002
-4	-3	-4	2	4	-0.000069	0.000009
-4	-3	-4	3	4	-0.000067	-0.000012
-4	-3	-4	4	4	0.000262	0.000000
-4	-3	-4	5	4	0.000000	0.000003
-4	-3	-4	6	4	-0.000015	0.000012
-4	-3	-4	7	4	0.000015	-0.000009
-4	-3	-4	8	4	0.000000	0.000000
-4	-3	-4	1	5	0.000000	0.000000
-4	-3	-4	2	5	0.000000	0.000059
-4	-3	-4	3	5	-0.000001	0.000004
-4	-3	-4	4	5	0.000000	0.000003
-4	-3	-4	5	5	-0.000723	0.000000
-4	-3	-4	6	5	0.000003	0.000004
-4	-3	-4	7	5	0.000008	0.000060
-4	-3	-4	8	5	0.000423	0.000002
-4	-3	-4	1	6	0.000000	0.000059
-4	-3	-4	2	6	0.000000	0.000000
-4	-3	-4	3	6	0.000045	0.000021
-4	-3	-4	4	6	-0.000015	-0.000012
-4	-3	-4	5	6	-0.000003	0.000004
-4	-3	-4	6	6	0.000252	0.000000
-4	-3	-4	7	6	-0.000087	-0.000020
-4	-3	-4	8	6	-0.000069	0.000009
-4	-3	-4	1	7	-0.000001	0.000004
-4	-3	-4	2	7	-0.000045	-0.000021
-4	-3	-4	3	7	0.000000	0.000000
-4	-3	-4	4	7	0.000015	0.000009
-4	-3	-4	5	7	-0.000008	0.000060
-4	-3	-4	6	7	-0.000087	0.000020
-4	-3	-4	7	7	0.000247	0.000000
-4	-3	-4	8	7	-0.000067	-0.000012
-4	-3	-4	1	8	0.000000	0.000003
-4	-3	-4	2	8	0.000015	0.000012
-4	-3	-4	3	8	-0.000015	-0.000009
-4	-3	-4	4	8	0.000000	0.000000
-4	-3	-4	5	8	-0.000423	0.000002
-4	-3	-4	6	8	-0.000069	-0.000009
-4	-3	-4	7	8	-0.000067	0.000012
-4	-3	-4	8	8	0.000262	0.000000
-4	-3	-3	1	1	-0.000713	0.000000
-4	-3	-3	2	1	0.000201	0.000005
-4	-3	-3	3	1	0.000116	-0.000003
-4	-3	-3	4	1	0.000202	0.000023
-4	-3	-3	5	1	0.000000	0.000000
-4	-3	-3	6	1	0.000023	0.000015
-4	-3	-3	7	1	-0.000003	0.000000
-4	-3	-3	8	1	0.000005	-0.000015
-4	-3	-3	1	2	-0.000201	0.000005
-4	-3	-3	2	2	0.000244	0.000000
-4	-3	-3	3	2	0.000011	0.000054
-4	-3	-3	4	2	-0.000021	0.000000
-4	-3	-3	5	2	0.000023	0.000015
-4	-3	-3	6	2	0.000000	0.000000
-4	-3	-3	7	2	-0.000028	0.000018
-4	-3	-3	8	2	0.000000	-0.000011
-4	-3	-3	1	3	-0.000116	-0.000003
-4	-3	-3	2	3	0.000011	-0.000054
-4	-3	-3	3	3	0.000179	0.000000
-4	-3	-3	4	3	0.000011	0.000027
-4	-3	-3	5	3	-0.000003	0.000000
-4	-3	-3	6	3	0.000028	-0.000018
-4	-3	-3	7	3	0.000000	0.000000
-4	-3	-3	8	3	-0.000054	0.000018
-4	-3	-3	1	4	-0.000202	0.000023
-4	-3	-3	2	4	-0.000021	0.000000
-4	-3	-3	3	4	0.000011	-0.000027
-4	-3	-3	4	4	0.000239	0.000000
-4	-3	-3	5	4	0.000005	-0.000015
-4	-3	-3	6	4	0.000000	0.000011
-4	-3	-3	7	4	0.000054	-0.000018
-4	-3	-3	8	4	0.000000	0.000000
-4	-3	-3	1	5	0.000000	0.000000
-4	-3	-3	2	5	-0.000023	0.000015
-4	-3	-3	3	5	0.000003	0.000000
-4	-3	-3	4	5	-0.000005	-0.000015
-4	-3	-3	5	5	-0.000713	0.000000
-4	-3	-3	6	5	0.000201	-0.000005
-4	-3	-3	7	5	0.000116	0.000003
-4	-3	-3	8	5	0.000202	-0.000023
-4	-3	-3	1	6	-0.000023	0.000015
-4	-3	-3	2	6	0.000000	0.000000
-4	-3	-3	3	6	0.000028	0.000018
-4	-3	-3	4	6	0.000000	-0.000011
-4	-3	-3	5	6	-0.000201	-0.000005
-4	-3	-3	6	6	0.000244	0.000000
-4	-3	-3	7	6	0.000011	-0.000054
-4	-3	-3	8	6	-0.000021	0.000000
-4	-3	-3	1	7	0.000003	0.000000
-4	-3	-3	2	7	-0.000028	-0.000018
-4	-3	-3	3	7	0.000000	0.000000
-4	-3	-3	4	7	0.000054	0.000018
-4	-3	-3	5	7	-0.000116	0.000003
-4	-3	-3	6	7	0.000011	0.000054
-4	-3	-3	7	7	0.000179	0.000000
-4	-3	-3	8	7	0.000011	-0.000027
-4	-3	-3	1	8	-0.000005	-0.000015
-4	-3	-3	2	8	0.000000	0.000011
-4	-3	-3	3	8	-0.000054	-0.000018
-4	-3	-3	4	8	0.000000	0.000000
-4	-3	-3	5	8	-0.000202	-0.000023
-4	-3	-3	6	8	-0.000021	0.000000
-4	-3	-3	7	8	0.000011	0.000027
-4	-3	-3	8	8	0.000239	0.000000
-4	-3	-2	1	1	-0.000711	0.000000
-4	-3	-2	2	1	0.000604	0.000007
-4	-3	-2	3	1	0.000051	0.000062
-4	-3	-2	4	1	0.000154	-0.000013
-4	-3	-2	5	1	0.000000	0.000000
-4	-3	-2	6	1	0.000020	-0.000016
-4	-3	-2	7	1	-0.000040	0.000008
-4	-3	-2	8	1	0.000016	-0.000063
-4	-3	-2	1	2	-0.000604	0.000007
-4	-3	-2	2	2	0.000154	0.000000
-4	-3	-2	3	2	0.000093	0.000027
-4	-3	-2	4	2	0.000297	-0.000001
-4	-3	-2	5	2	0.000020	-0.000016
-4	-3	-2	6	2	0.000000	0.000000
-4	-3	-2	7	2	-0.000023	0.000002
-4	-3	-2	8	2	-0.000011	-0.000013
-4	-3	-2	1	3	-0.000051	0.000062
-4	-3	-2	2	3	0.000093	-0.000027
-4	-3	-2	3	3	0.000337	0.000000
-4	-3	-2	4	3	-0.000077	0.000040
-4	-3	-2	5	3	-0.000040	0.000008
-4	-3	-2	6	3	0.000023	-0.000002
-4	-3	-2	7	3	0.000000	0.000000
-4	-3	-2	8	3	-0.000067	0.000005
-4	-3	-2	1	4	-0.000154	-0.000013
-4	-3	-2	2	4	0.000297	0.000001
-4	-3	-2	3	4	-0.000077	-0.000040
-4	-3	-2	4	4	0.000230	0.000000
-4	-3	-2	5	4	0.000016	-0.000063
-4	-3	-2	6	4	0.000011	0.000013
-4	-3	-2	7	4	0.000067	-0.000005
-4	-3	-2	8	4	0.000000	0.000000
-4	-3	-2	1	5	0.000000	0.000000
-4	-3	-2	2	5	-0.000020	-0.000016
-4	-3	-2	3	5	0.000040	0.000008
-4	-3	-2	4	5	-0.000016	-0.000063
-4	-3	-2	5	5	-0.000711	0.000000
-4	-3	-2	6	5	0.000604	-0.000007
-4	-3	-2	7	5	0.000051	-0.000062
-4	-3	-2	8	5	0.000154	0.000013
-4	-3	-2	1	6	-0.000020	-0.000016
-4	-3	-2	2	6	0.000000	0.000000
-4	-3	-2	3	6	0.000023	0.000002
-4	-3	-2	4	6	0.000011	-0.000013
-4	-3	-2	5	6	-0.000604	-0.000007
-4	-3	-2	6	6	0.000154	0.000000
-4	-3	-2	7	6	0.000093	-0.000027
-4	-3	-2	8	6	0.000297	0.000001
-4	-3	-2	1	7	0.000040	0.000008
-4	-3	-2	2	7	-0.000023	-0.000002
-4	-3	-2	3	7	0.000000	0.000000
-4	-3	-2	4	7	0.000067	0.000005
-4	-3	-2	5	7	-0.000051	-0.000062
-4	-3	-2	6	7	0.000093	0.000027
-4	-3	-2	7	7	0.000337	0.000000
-4	-3	-2	8	7	-0.000077	-0.000040
-4	-3	-2	1	8	-0.000016	-0.000063
-4	-3	-2	2	8	-0.000011	0.000013
-4	-3	-2	3	8	-0.000067	-0.000005
-4	-3	-2	4	8	0.000000	0.000000
-4	-3	-2	5	8	-0.000154	0.000013
-4	-3	-2	6	8	0.000297	-0.000001
-4	-3	-2	7	8	-0.000077	0.000040
-4	-3	-2	8	8	0.000230	0.000000
-4	-3	-1	1	1	-0.001877	0.000000
-4	-3	-1	2	1	0.000913	-0.000002
-4	-3	-1	3	1	0.000527	-0.000031
-4	-3	-1	4	1	0.001017	0.000018
-4	-3	-1	5	1	0.000000	0.000000
-4	-3	-1	6	1	0.000024	0.000002
-4	-3	-1	7	1	-0.000043	0.000024
-4	-3	-1	8	1	0.000022	-0.000067
-4	-3	-1	1	2	-0.000913	-0.000002
-4	-3	-1	2	2	-0.000310	0.000000
-4	-3	-1	3	2	0.000172	-0.000011
-4	-3	-1	4	2	0.000566	-0.000006
-4	-3	-1	5	2	0.000024	0.000002
-4	-3	-1	6	2	0.000000	0.000000
-4	-3	-1	7	2	-0.000007	-0.000033
-4	-3	-1	8	2	-0.000046	0.000005
-4	-3	-1	1	3	-0.000527	-0.000031
-4	-3	-1	2	3	0.000172	0.000011
-4	-3	-1	3	3	0.001129	0.000000
-4	-3	-1	4	3	0.000299	0.000055
-4	-3	-1	5	3	-0.000043	0.000024
-4	-3	-1	6	3	0.000007	0.000033
-4	-3	-1	7	3	0.000000	0.000000
-4	-3	-1	8	3	-0.000041	0.000031
-4	-3	-1	1	4	-0.001017	0.000018
-4	-3	-1	2	4	0.000566	0.000006
-4	-3	-1	3	4	0.000299	-0.000055
-4	-3	-1	4	4	0.001012	0.000000
-4	-3	-1	5	4	0.000022	-0.000067
-4	-3	-1	6	4	0.000046	-0.000005
-4	-3	-1	7	4	0.000041	-0.000031
-4	-3	-1	8	4	0.000000	0.000000
-4	-3	-1	1	5	0.000000	0.000000
-4	-3	-1	2	5	-0.000024	0.000002
-4	-3	-1	3	5	0.000043	0.000024
-4	-3	-1	4	5	-0.000022	-0.000067
-4	-3	-1	5	5	-0.001877	0.000000
-4	-3	-1	6	5	0.000913	0.000002
-4	-3	-1	7	5	0.000527	0.000031
-4	-3	-1	8	5	0.001017	-0.000018
-4	-3	-1	1	6	-0.000024	0.000002
-4	-3	-1	2	6	0.000000	0.000000
-4	-3	-1	3	6	0.000007	-0.000033
-4	-3	-1	4	6	0.000046	0.000005
-4	-3	-1	5	6	-0.000913	0.000002
-4	-3	-1	6	6	-0.000310	0.000000
-4	-3	-1	7	6	0.000172	0.000011
-4	-3	-1	8	6	0.000566	0.000006
-4	-3	-1	1	7	0.000043	0.000024
-4	-3	-1	2	7	-0.000007	0.000033
-4	-3	-1	3	7	0.000000	0.000000
-4	-3	-1	4	7	0.000041	0.000031
-4	-3	-1	5	7	-0.000527	0.000031
-4	-3	-1	6	7	0.000172	-0.000011
-4	-3	-1	7	7	0.001129	0.000000
-4	-3	-1	8	7	0.000299	-0.000055
-4	-3	-1	1	8	-0.000022	-0.000067
-4	-3	-1	2	8	-0.000046	-0.000005
-4	-3	-1	3	8	-0.000041	-0.000031
-4	-3	-1	4	8	0.000000	0.000000
-4	-3	-1	5	8	-0.001017	-0.000018
-4	-3	-1	6	8	0.000566	-0.000006
-4	-3	-1	7	8	0.000299	0.000055
-4	-3	-1	8	8	0.001012	0.000000
-4	-3	0	1	1	-0.003677	0.000000
-4	-3	0	2	1	0.000029	0.000005
-4	-3	0	3	1	0.001095	-0.000130
-4	-3	0	4	1	0.002178	0.000060
-4	-3	0	5	1	0.000000	0.000000
-4	-3	0	6	1	0.000021	0.000025
-4	-3	0	7	1	0.000007	-0.000005
-4	-3	0	8	1	0.000000	0.000001
-4	-3	0	1	2	-0.000029	0.000005
-4	-3	0	2	2	-0.000644	0.000000
-4	-3	0	3	2	-0.000015	0.000013
-4	-3	0	4	2	0.000020	0.000003
-4	-3	0	5	2	0.000021	0.000025
-4	-3	0	6	2	0.000000	0.000000
-4	-3	0	7	2	-0.000017	-0.000073
-4	-3	0	8	2	-0.000054	-0.000002
-4	-3	0	1	3	-0.001095	-0.000130
-4	-3	0	2	3	-0.000015	-0.000013
-4	-3	0	3	3	0.002863	0.000000
-4	-3	0	4	3	0.000862	0.000147
-4	-3	0	5	3	0.000007	-0.000005
-4	-3	0	6	3	0.000017	0.000073
-4	-3	0	7	3	0.000000	0.000000
-4	-3	0	8	3	-0.000005	0.000001
-4	-3	0	1	4	-0.002178	0.000060
-4	-3	0	2	4	0.000020	-0.000003
-4	-3	0	3	4	0.000862	-0.000147
-4	-3	0	4	4	0.001974	0.000000
-4	-3	0	5	4	0.000000	0.000001
-4	-3	0	6	4	0.000054	0.000002
-4	-3	0	7	4	0.000005	-0.000001
-4	-3	0	8	4	0.000000	0.000000
-4	-3	0	1	5	0.000000	0.000000
-4	-3	0	2	5	-0.000021	0.000025
-4	-3	0	3	5	-0.000007	-0.000005
-4	-3	0	4	5	0.000000	0.000001
-4	-3	0	5	5	-0.003677	0.000000
-4	-3	0	6	5	0.000029	-0.000005
-4	-3	0	7	5	0.001095	0.000130
-4	-3	0	8	5	0.002178	-0.000060
-4	-3	0	1	6	-0.000021	0.000025
-4	-3	0	2	6	0.000000	0.000000
-4	-3	0	3	6	0.000017	-0.000073
-4	-3	0	4	6	0.000054	-0.000002
-4	-3	0	5	6	-0.000029	-0.000005
-4	-3	0	6	6	-0.000644	0.000000
-4	-3	0	7	6	-0.000015	-0.000013
-4	-3	0	8	6	0.000020	-0.000003
-4	-3	0	1	7	-0.000007	-0.000005
-4	-3	0	2	7	-0.000017	0.000073
-4	-3	0	3	7	0.000000	0.000000
-4	-3	0	4	7	0.000005	0.000001
-4	-3	0	5	7	-0.001095	0.000130
-4	-3	0	6	7	-0.000015	0.000013
-4	-3	0	7	7	0.002863	0.000000
-4	-3	0	8	7	0.000862	-0.000147
-4	-3	0	1	8	0.000000	0.000001
-4	-3	0	2	8	-0.000054	0.000002
-4	-3	0	3	8	-0.000005	-0.000001
-4	-3	0	4	8	0.000000	0.000000
-4	-3	0	5	8	-0.002178	-0.000060
-4	-3	0	6	8	0.000020	0.000003
-4	-3	0	7	8	0.000862	0.000147
-4	-3	0	8	8	0.001974	0.000000
-4	-3	1	1	1	-0.001875	0.000000
-4	-3	1	2	1	-0.000886	0.000009
-4	-3	1	3	1	0.000522	-0.000032
-4	-3	1	4	1	0.000995	0.000010
-4	-3	1	5	1	0.000000	0.000000
-4	-3	1	6	1	0.000009	0.000005
-4	-3	1	7	1	0.000049	-0.000025
-4	-3	1	8	1	-0.000018	0.000057
-4	-3	1	1	2	0.000886	0.000009
-4	-3	1	2	2	-0.000330	0.000000
-4	-3	1	3	2	-0.000238	0.000024
-4	-3	1	4	2	-0.000565	0.000013
-4	-3	1	5	2	0.000009	0.000005
-4	-3	1	6	2	0.000000	0.000000
-4	-3	1	7	2	-0.000005	-0.000043
-4	-3	1	8	2	-0.000049	0.000006
-4	-3	1	1	3	-0.000522	-0.000032
-4	-3	1	2	3	-0.000238	-0.000024
-4	-3	1	3	3	0.001075	0.000000
-4	-3	1	4	3	0.000407	0.000034
-4	-3	1	5	3	0.000049	-0.000025
-4	-3	1	6	3	0.000005	0.000043
-4	-3	1	7	3	0.000000	0.000000
-4	-3	1	8	3	0.000039	-0.000015
-4	-3	1	1	4	-0.000995	0.000010
-4	-3	1	2	4	-0.000565	-0.000013
-4	-3	1	3	4	0.000407	-0.000034
-4	-3	1	4	4	0.000920	0.000000
-4	-3	1	5	4	-0.000018	0.000057
-4	-3	1	6	4	0.000049	-0.000006
-4	-3	1	7	4	-0.000039	0.000015
-4	-3	1	8	4	0.000000	0.000000
-4	-3	1	1	5	0.000000	0.000000
-4	-3	1	2	5	-0.000009	0.000005
-4	-3	1	3	5	-0.000049	-0.000025
-4	-3	1	4	5	0.000018	0.000057
-4	-3	1	5	5	-0.001875	0.000000
-4	-3	1	6	5	-0.000886	-0.000009
-4	-3	1	7	5	0.000522	0.000032
-4	-3	1	8	5	0.000995	-0.000010
-4	-3	1	1	6	-0.000009	0.000005
-4	-3	1	2	6	0.000000	0.000000
-4	-3	1	3	6	0.000005	-0.000043
-4	-3	1	4	6	0.000049	0.000006
-4	-3	1	5	6	0.000886	-0.000009
-4	-3	1	6	6	-0.000330	0.000000
-4	-3	1	7	6	-0.000238	-0.000024
-4	-3	1	8	6	-0.000565	-0.000013
-4	-3	1	1	7	-0.000049	-0.000025
-4	-3	1	2	7	-0.000005	0.000043
-4	-3	1	3	7	0.000000	0.000000
-4	-3	1	4	7	-0.000039	-0.000015
-4	-3	1	5	7	-0.000522	0.000032
-4	-3	1	6	7	-0.000238	0.000024
-4	-3	1	7	7	0.001075	0.000000
-4	-3	1	8	7	0.000407	-0.000034
-4	-3	1	1	8	0.000018	0.000057
-4	-3	1	2	8	-0.000049	-0.000006
-4	-3	1	3	8	0.000039	0.000015
-4	-3	1	4	8	0.000000	0.000000
-4	-3	1	5	8	-0.000995	-0.000010
-4	-3	1	6	8	-0.000565	0.000013
-4	-3	1	7	8	0.000407	0.000034
-4	-3	1	8	8	0.000920	0.000000
-4	-3	2	1	1	-0.000724	0.000000
-4	-3	2	2	1	-0.000577	-0.000001
-4	-3	2	3	1	0.000068	0.000066
-4	-3	2	4	1	0.000184	-0.000029
-4	-3	2	5	1	0.000000	0.000000
-4	-3	2	6	1	0.000003	-0.000002
-4	-3	2	7	1	0.000045	-0.000010
-4	-3	2	8	1	-0.000015	0.000059
-4	-3	2	1	2	0.000577	-0.000001
-4	-3	2	2	2	0.000131	0.000000
-4	-3	2	3	2	-0.000107	-0.000024
-4	-3	2	4	2	-0.000325	0.000002
-4	-3	2	5	2	0.000003	-0.000002
-4	-3	2	6	2	0.000000	0.000000
-4	-3	2	7	2	-0.000014	-0.000005
-4	-3	2	8	2	-0.000006	-0.000010
-4	-3	2	1	3	-0.000068	0.000066
-4	-3	2	2	3	-0.000107	0.000024
-4	-3	2	3	3	0.000325	0.000000
-4	-3	2	4	3	-0.000127	0.000053
-4	-3	2	5	3	0.000045	-0.000010
-4	-3	2	6	3	0.000014	0.000005
-4	-3	2	7	3	0.000000	0.000000
-4	-3	2	8	3	0.000059	-0.000010
-4	-3	2	1	4	-0.000184	-0.000029
-4	-3	2	2	4	-0.000325	-0.000002
-4	-3	2	3	4	-0.000127	-0.000053
-4	-3	2	4	4	0.000281	0.000000
-4	-3	2	5	4	-0.000015	0.000059
-4	-3	2	6	4	0.000006	0.000010
-4	-3	2	7	4	-0.000059	0.000010
-4	-3	2	8	4	0.000000	0.000000
-4	-3	2	1	5	0.000000	0.000000
-4	-3	2	2	5	-0.000003	-0.000002
-4	-3	2	3	5	-0.000045	-0.000010
-4	-3	2	4	5	0.000015	0.000059
-4	-3	2	5	5	-0.000724	0.000000
-4	-3	2	6	5	-0.000577	0.000001
-4	-3	2	7	5	0.000068	-0.000066
-4	-3	2	8	5	0.000184	0.000029
-4	-3	2	1	6	-0.000003	-0.000002
-4	-3	2	2	6	0.000000	0.000000
-4	-3	2	3	6	0.000014	-0.000005
-4	-3	2	4	6	0.000006	-0.000010
-4	-3	2	5	6	0.000577	0.000001
-4	-3	2	6	6	0.000131	0.000000
-4	-3	2	7	6	-0.000107	0.000024
-4	-3	2	8	6	-0.000325	-0.000002
-4	-3	2	1	7	-0.000045	-0.000010
-4	-3	2	2	7	-0.000014	0.000005
-4	-3	2	3	7	0.000000	0.000000
-4	-3	2	4	7	-0.000059	-0.000010
-4	-3	2	5	7	-0.000068	-0.000066
-4	-3	2	6	7	-0.000107	-0.000024
-4	-3	2	7	7	0.000325	0.000000
-4	-3	2	8	7	-0.000127	-0.000053
-4	-3	2	1	8	0.000015	0.000059
-4	-3	2	2	8	-0.000006	0.000010
-4	-3	2	3	8	0.000059	0.000010
-4	-3	2	4	8	0.000000	0.000000
-4	-3	2	5	8	-0.000184	0.000029
-4	-3	2	6	8	-0.000325	0.000002
-4	-3	2	7	8	-0.000127	0.000053
-4	-3	2	8	8	0.000281	0.000000
-4	-3	3	1	1	-0.000732	0.000000
-4	-3	3	2	1	-0.000220	-0.000004
-4	-3	3	3	1	0.000117	-0.000001
-4	-3	3	4	1	0.000237	0.000015
-4	-3	3	5	1	0.000000	0.000000
-4	-3	3	6	1	0.000007	0.000029
-4	-3	3	7	1	-0.000003	-0.000004
-4	-3	3	8	1	-0.000007	0.000023
-4	-3	3	1	2	0.000220	-0.000004
-4	-3	3	2	2	0.000232	0.000000
-4	-3	3	3	2	0.000000	-0.000067
-4	-3	3	4	2	-0.000007	0.000002
-4	-3	3	5	2	0.000007	0.000029
-4	-3	3	6	2	0.000000	0.000000
-4	-3	3	7	2	-0.000021	0.000015
-4	-3	3	8	2	0.000005	-0.000019
-4	-3	3	1	3	-0.000117	-0.000001
-4	-3	3	2	3	0.000000	0.000067
-4	-3	3	3	3	0.000191	0.000000
-4	-3	3	4	3	0.000021	0.000027
-4	-3	3	5	3	-0.000003	-0.000004
-4	-3	3	6	3	0.000021	-0.000015
-4	-3	3	7	3	0.000000	0.000000
-4	-3	3	8	3	0.000063	-0.000017
-4	-3	3	1	4	-0.000237	0.000015
-4	-3	3	2	4	-0.000007	-0.000002
-4	-3	3	3	4	0.000021	-0.000027
-4	-3	3	4	4	0.000249	0.000000
-4	-3	3	5	4	-0.000007	0.000023
-4	-3	3	6	4	-0.000005	0.000019
-4	-3	3	7	4	-0.000063	0.000017
-4	-3	3	8	4	0.000000	0.000000
-4	-3	3	1	5	0.000000	0.000000
-4	-3	3	2	5	-0.000007	0.000029
-4	-3	3	3	5	0.000003	-0.000004
-4	-3	3	4	5	0.000007	0.000023
-4	-3	3	5	5	-0.000732	0.000000
-4	-3	3	6	5	-0.000220	0.000004
-4	-3	3	7	5	0.000117	0.000001
-4	-3	3	8	5	0.000237	-0.000015
-4	-3	3	1	6	-0.000007	0.000029
-4	-3	3	2	6	0.000000	0.000000
-4	-3	3	3	6	0.000021	0.000015
-4	-3	3	4	6	-0.000005	-0.000019
-4	-3	3	5	6	0.000220	0.000004
-4	-3	3	6	6	0.000232	0.000000
-4	-3	3	7	6	0.000000	0.000067
-4	-3	3	8	6	-0.000007	-0.000002
-4	-3	3	1	7	0.000003	-0.000004
-4	-3	3	2	7	-0.000021	-0.000015
-4	-3	3	3	7	0.000000	0.000000
-4	-3	3	4	7	-0.000063	-0.000017
-4	-3	3	5	7	-0.000117	0.000001
-4	-3	3	6	7	0.000000	-0.000067
-4	-3	3	7	7	0.000191	0.000000
-4	-3	3	8	7	0.000021	-0.000027
-4	-3	3	1	8	0.000007	0.000023
-4	-3	3	2	8	0.000005	0.000019
-4	-3	3	3	8	0.000063	0.000017
-4	-3	3	4	8	0.000000	0.000000
-4	-3	3	5	8	-0.000237	-0.000015
-4	-3	3	6	8	-0.000007	0.000002
-4	-3	3	7	8	0.000021	0.000027
-4	-3	3	8	8	0.000249	0.000000
-4	-3	4	1	1	-0.000711	0.000000
-4	-3	4	2	1	-0.000045	0.000001
-4	-3	4	3	1	0.000051	-0.000064
-4	-3	4	4	1	0.000430	0.000006
-4	-3	4	5	1	0.000000	0.000000
-4	-3	4	6	1	-0.000005	0.000065
-4	-3	4	7	1	-0.000014	0.000002
-4	-3	4	8	1	0.000001	0.000003
-4	-3	4	1	2	0.000045	0.000001
-4	-3	4	2	2	0.000239	0.000000
-4	-3	4	3	2	0.000091	-0.000026
-4	-3	4	4	2	0.000022	0.000005
-4	-3	4	5	2	-0.000005	0.000065
-4	-3	4	6	2	0.000000	0.000000
-4	-3	4	7	2	-0.000043	0.000018
-4	-3	4	8	2	0.000016	-0.000017
-4	-3	4	1	3	-0.000051	-0.000064
-4	-3	4	2	3	0.000091	0.000026
-4	-3	4	3	3	0.000183	0.000000
-4	-3	4	4	3	-0.000017	0.000003
-4	-3	4	5	3	-0.000014	0.000002
-4	-3	4	6	3	0.000043	-0.000018
-4	-3	4	7	3	0.000000	0.000000
-4	-3	4	8	3	0.000016	-0.000013
-4	-3	4	1	4	-0.000430	0.000006
-4	-3	4	2	4	0.000022	-0.000005
-4	-3	4	3	4	-0.000017	-0.000003
-4	-3	4	4	4	0.000224	0.000000
-4	-3	4	5	4	0.000001	0.000003
-4	-3	4	6	4	-0.000016	0.000017
-4	-3	4	7	4	-0.000016	0.000013
-4	-3	4	8	4	0.000000	0.000000
-4	-3	4	1	5	0.000000	0.000000
-4	-3	4	2	5	0.000005	0.000065
-4	-3	4	3	5	0.000014	0.000002
-4	-3	4	4	5	-0.000001	0.000003
-4	-3	4	5	5	-0.000711	0.000000
-4	-3	4	6	5	-0.000045	-0.000001
-4	-3	4	7	5	0.000051	0.000064
-4	-3	4	8	5	0.000430	-0.000006
-4	-3	4	1	6	0.000005	0.000065
-4	-3	4	2	6	0.000000	0.000000
-4	-3	4	3	6	0.000043	0.000018
-4	-3	4	4	6	-0.000016	-0.000017
-4	-3	4	5	6	0.000045	-0.000001
-4	-3	4	6	6	0.000239	0.000000
-4	-3	4	7	6	0.000091	0.000026
-4	-3	4	8	6	0.000022	-0.000005
-4	-3	4	1	7	0.000014	0.000002
-4	-3	4	2	7	-0.000043	-0.000018
-4	-3	4	3	7	0.000000	0.000000
-4	-3	4	4	7	-0.000016	-0.000013
-4	-3	4	5	7	-0.000051	0.000064
-4	-3	4	6	7	0.000091	-0.000026
-4	-3	4	7	7	0.000183	0.000000
-4	-3	4	8	7	-0.000017	-0.000003
-4	-3	4	1	8	-0.000001	0.000003
-4	-3	4	2	8	0.000016	0.000017
-4	-3	4	3	8	0.000016	0.000013
-4	-3	4	4	8	0.000000	0.000000
-4	-3	4	5	8	-0.000430	-0.000006
-4	-3	4	6	8	0.000022	0.000005
-4	-3	4	7	8	-0.000017	0.000003
-4	-3	4	8	8	0.000224	0.000000
-4	-2	-4	1	1	-0.000604	0.000000
-4	-2	-4	2	1	0.000018	0.000012
-4	-2	-4	3	1	0.000041	-0.000128
-4	-2	-4	4	1	0.000766	-0.000006
-4	-2	-4	5	1	0.000000	0.000000
-4	-2	-4	6	1	-0.000014	0.000128
-4	-2	-4	7	1	0.000016	-0.000011
-4	-2	-4	8	1	-0.000001	0.000008
-4	-2	-4	1	2	-0.000018	0.000012
-4	-2	-4	2	2	0.000268	0.000000
-4	-2	-4	3	2	-0.000018	0.000032
-4	-2	-4	4	2	0.000044	0.000008
-4	-2	-4	5	2	-0.000014	0.000128
-4	-2	-4	6	2	0.000000	0.000000
-4	-2	-4	7	2	-0.000075	0.000033
-4	-2	-4	8	2	0.000007	-0.000027
-4	-2	-4	1	3	-0.000041	-0.000128
-4	-2	-4	2	3	-0.000018	-0.000032
-4	-2	-4	3	3	0.000267	0.000000
-4	-2	-4	4	3	0.000051	0.000027
-4	-2	-4	5	3	0.000016	-0.000011
-4	-2	-4	6	3	0.000075	-0.000033
-4	-2	-4	7	3	0.000000	0.000000
-4	-2	-4	8	3	-0.000007	-0.000007
-4	-2	-4	1	4	-0.000766	-0.000006
-4	-2	-4	2	4	0.000044	-0.000008
-4	-2	-4	3	4	0.000051	-0.000027
-4	-2	-4	4	4	0.000092	0.000000
-4	-2	-4	5	4	-0.000001	0.000008
-4	-2	-4	6	4	-0.000007	0.000027
-4	-2	-4	7	4	0.000007	0.000007
-4	-2	-4	8	4	0.000000	0.000000
-4	-2	-4	1	5	0.000000	0.000000
-4	-2	-4	2	5	0.000014	0.000128
-4	-2	-4	3	5	-0.000016	-0.000011
-4	-2	-4	4	5	0.000001	0.000008
-4	-2	-4	5	5	-0.000604	0.000000
-4	-2	-4	6	5	0.000018	-0.000012
-4	-2	-4	7	5	0.000041	0.000128
-4	-2	-4	8	5	0.000766	0.000006
-4	-2	-4	1	6	0.000014	0.000128
-4	-2	-4	2	6	0.000000	0.000000
-4	-2	-4	3	6	0.000075	0.000033
-4	-2	-4	4	6	-0.000007	-0.000027
-4	-2	-4	5	6	-0.000018	-0.000012
-4	-2	-4	6	6	0.000268	0.000000
-4	-2	-4	7	6	-0.000018	-0.000032
-4	-2	-4	8	6	0.000044	-0.000008
-4	-2	-4	1	7	-0.000016	-0.000011
-4	-2	-4	2	7	-0.000075	-0.000033
-4	-2	-4	3	7	0.000000	0.000000
-4	-2	-4	4	7	0.000007	-0.000007
-4	-2	-4	5	7	-0.000041	0.000128
-4	-2	-4	6	7	-0.000018	0.000032
-4	-2	-4	7	7	0.000267	0.000000
-4	-2	-4	8	7	0.000051	-0.000027
-4	-2	-4	1	8	0.000001	0.000008
-4	-2	-4	2	8	0.000007	0.000027
-4	-2	-4	3	8	-0.000007	0.000007
-4	-2	-4	4	8	0.000000	0.000000
-4	-2	-4	5	8	-0.000766	0.000006
-4	-2	-4	6	8	0.000044	0.000008
-4	-2	-4	7	8	0.000051	0.000027
-4	-2	-4	8	8	0.000092	0.000000
-4	-2	-3	1	1	-0.000708	0.000000
-4	-2	-3	2	1	0.000135	0.000016
-4	-2	-3	3	1	0.000051	-0.000039
-4	-2	-3	4	1	0.000598	0.000020
-4	-2	-3	5	1	0.000000	0.000000
-4	-2	-3	6	1	-0.000013	0.000063
-4	-2	-3	7	1	0.000063	-0.000008
-4	-2	-3	8	1	0.000007	0.000017
-4	-2	-3	1	2	-0.000135	0.000016
-4	-2	-3	2	2	0.000231	0.000000
-4	-2	-3	3	2	-0.000085	0.000066
-4	-2	-3	4	2	0.000292	0.000011
-4	-2	-3	5	2	-0.000013	0.000063
-4	-2	-3	6	2	0.000000	0.000000
-4	-2	-3	7	2	-0.000041	0.000005
-4	-2	-3	8	2	0.000001	-0.000014
-4	-2	-3	1	3	-0.000051	-0.000039
-4	-2	-3	2	3	-0.000085	-0.000066
-4	-2	-3	3	3	0.000334	0.000000
-4	-2	-3	4	3	0.000091	0.000022
-4	-2	-3	5	3	0.000063	-0.000008
-4	-2	-3	6	3	0.000041	-0.000005
-4	-2	-3	7	3	0.000000	0.000000
-4	-2	-3	8	3	-0.000028	0.000002
-4	-2	-3	1	4	-0.000598	0.000020
-4	-2	-3	2	4	0.000292	-0.000011
-4	-2	-3	3	4	0.000091	-0.000022
-4	-2	-3	4	4	0.000152	0.000000
-4	-2	-3	5	4	0.000007	0.000017
-4	-2	-3	6	4	-0.000001	0.000014
-4	-2	-3	7	4	0.000028	-0.000002
-4	-2	-3	8	4	0.000000	0.000000
-4	-2	-3	1	5	0.000000	0.000000
-4	-2	-3	2	5	0.000013	0.000063
-4	-2	-3	3	5	-0.000063	-0.000008
-4	-2	-3	4	5	-0.000007	0.000017
-4	-2	-3	5	5	-0.000708	0.000000
-4	-2	-3	6	5	0.000135	-0.000016
-4	-2	-3	7	5	0.000051	0.000039
-4	-2	-3	8	5	0.000598	-0.000020
-4	-2	-3	1	6	0.000013	0.000063
-4	-2	-3	2	6	0.000000	0.000000
-4	-2	-3	3	6	0.000041	0.000005
-4	-2	-3	4	6	-0.000001	-0.000014
-4	-2	-3	5	6	-0.000135	-0.000016
-4	-2	-3	6	6	0.000231	0.000000
-4	-2	-3	7	6	-0.000085	-0.000066
-4	-2	-3	8	6	0.000292	-0.000011
-4	-2	-3	1	7	-0.000063	-0.000008
-4	-2	-3	2	7	-0.000041	-0.000005
-4	-2	-3	3	7	0.000000	0.000000
-4	-2	-3	4	7	0.000028	0.000002
-4	-2	-3	5	7	-0.000051	0.000039
-4	-2	-3	6	7	-0.000085	0.000066
-4	-2	-3	7	7	0.000334	0.000000
-4	-2	-3	8	7	0.000091	-0.000022
-4	-2	-3	1	8	-0.000007	0.000017
-4	-2	-3	2	8	0.000001	0.000014
-4	-2	-3	3	8	-0.000028	-0.000002
-4	-2	-3	4	8	0.000000	0.000000
-4	-2	-3	5	8	-0.000598	-0.000020
-4	-2	-3	6	8	0.000292	0.000011
-4	-2	-3	7	8	0.000091	0.000022
-4	-2	-3	8	8	0.000152	0.000000
-4	-2	-2	1	1	-0.000500	0.000000
-4	-2	-2	2	1	0.000508	0.000016
-4	-2	-2	3	1	0.000073	0.000051
-4	-2	-2	4	1	0.000518	0.000018
-4	-2	-2	5	1	0.000000	0.000000
-4	-2	-2	6	1	0.000017	-0.000014
-4	-2	-2	7	1	0.000051	0.000000
-4	-2	-2	8	1	0.000016	0.000013
-4	-2	-2	1	2	-0.000508	0.000016
-4	-2	-2	2	2	0.000159	0.000000
-4	-2	-2	3	2	-0.000029	0.000028
-4	-2	-2	4	2	0.001036	0.000001
-4	-2	-2	5	2	0.000017	-0.000014
-4	-2	-2	6	2	0.000000	0.000000
-4	-2	-2	7	2	0.000004	-0.000007
-4	-2	-2	8	2	0.000000	0.000010
-4	-2	-2	1	3	-0.000073	0.000051
-4	-2	-2	2	3	-0.000029	-0.000028
-4	-2	-2	3	3	0.000584	0.000000
-4	-2	-2	4	3	-0.000025	-0.000005
-4	-2	-2	5	3	0.000051	0.000000
-4	-2	-2	6	3	-0.000004	0.000007
-4	-2	-2	7	3	0.000000	0.000000
-4	-2	-2	8	3	-0.000029	-0.000007
-4	-2	-2	1	4	-0.000518	0.000018
-4	-2	-2	2	4	0.001036	-0.000001
-4	-2	-2	3	4	-0.000025	0.000005
-4	-2	-2	4	4	0.000164	0.000000
-4	-2	-2	5	4	0.000016	0.000013
-4	-2	-2	6	4	0.000000	-0.000010
-4	-2	-2	7	4	0.000029	0.000007
-4	-2	-2	8	4	0.000000	0.000000
-4	-2	-2	1	5	0.000000	0.000000
-4	-2	-2	2	5	-0.000017	-0.000014
-4	-2	-2	3	5	-0.000051	0.000000
-4	-2	-2	4	5	-0.000016	0.000013
-4	-2	-2	5	5	-0.000500	0.000000
-4	-2	-2	6	5	0.000508	-0.000016
-4	-2	-2	7	5	0.000073	-0.000051
-4	-2	-2	8	5	0.000518	-0.000018
-4	-2	-2	1	6	-0.000017	-0.000014
-4	-2	-2	2	6	0.000000	0.000000
-4	-2	-2	3	6	-0.000004	-0.000007
-4	-2	-2	4	6	0.000000	0.000010
-4	-2	-2	5	6	-0.000508	-0.000016
-4	-2	-2	6	6	0.000159	0.000000
-4	-2	-2	7	6	-0.000029	-0.000028
-4	-2	-2	8	6	0.001036	-0.000001
-4	-2	-2	1	7	-0.000051	0.000000
-4	-2	-2	2	7	0.000004	0.000007
-4	-2	-2	3	7	0.000000	0.000000
-4	-2	-2	4	7	0.000029	-0.000007
-4	-2	-2	5	7	-0.000073	-0.000051
-4	-2	-2	6	7	-0.000029	0.000028
-4	-2	-2	7	7	0.000584	0.000000
-4	-2	-2	8	7	-0.000025	0.000005
-4	-2	-2	1	8	-0.000016	0.000013
-4	-2	-2	2	8	0.000000	-0.000010
-4	-2	-2	3	8	-0.000029	0.000007
-4	-2	-2	4	8	0.000000	0.000000
-4	-2	-2	5	8	-0.000518	-0.000018
-4	-2	-2	6	8	0.001036	0.000001
-4	-2	-2	7	8	-0.000025	-0.000005
-4	-2	-2	8	8	0.000164	0.000000
-4	-2	-1	1	1	-0.001432	0.000000
-4	-2	-1	2	1	0.001004	0.000020
-4	-2	-1	3	1	0.000020	-0.000102
-4	-2	-1	4	1	0.002648	-0.000015
-4	-2	-1	5	1	0.000000	0.000000
-4	-2	-1	6	1	0.000031	-0.000034
-4	-2	-1	7	1	-0.000030	0.000014
-4	-2	-1	8	1	0.000019	0.000028
-4	-2	-1	1	2	-0.001004	0.000020
-4	-2	-1	2	2	-0.000333	0.000000
-4	-2	-1	3	2	0.000243	-0.000026
-4	-2	-1	4	2	0.001693	-0.000003
-4	-2	-1	5	2	0.000031	-0.000034
-4	-2	-1	6	2	0.000000	0.000000
-4	-2	-1	7	2	0.000088	-0.000051
-4	-2	-1	8	2	-0.000066	-0.000006
-4	-2	-1	1	3	-0.000020	-0.000102
-4	-2	-1	2	3	0.000243	0.000026
-4	-2	-1	3	3	0.001294	0.000000
-4	-2	-1	4	3	0.001165	-0.000059
-4	-2	-1	5	3	-0.000030	0.000014
-4	-2	-1	6	3	-0.000088	0.000051
-4	-2	-1	7	3	0.000000	0.000000
-4	-2	-1	8	3	0.000004	0.000002
-4	-2	-1	1	4	-0.002648	-0.000015
-4	-2	-1	2	4	0.001693	0.000003
-4	-2	-1	3	4	0.001165	0.000059
-4	-2	-1	4	4	0.000785	0.000000
-4	-2	-1	5	4	0.000019	0.000028
-4	-2	-1	6	4	0.000066	0.000006
-4	-2	-1	7	4	-0.000004	-0.000002
-4	-2	-1	8	4	0.000000	0.000000
-4	-2	-1	1	5	0.000000	0.000000
-4	-2	-1	2	5	-0.000031	-0.000034
-4	-2	-1	3	5	0.000030	0.000014
-4	-2	-1	4	5	-0.000019	0.000028
-4	-2	-1	5	5	-0.001432	0.000000
-4	-2	-1	6	5	0.001004	-0.000020
-4	-2	-1	7	5	0.000020	0.000102
-4	-2	-1	8	5	0.002648	0.000015
-4	-2	-1	1	6	-0.000031	-0.000034
-4	-2	-1	2	6	0.000000	0.000000
-4	-2	-1	3	6	-0.000088	-0.000051
-4	-2	-1	4	6	0.000066	-0.000006
-4	-2	-1	5	6	-0.001004	-0.000020
-4	-2	-1	6	6	-0.000333	0.000000
-4	-2	-1	7	6	0.000243	0.000026
-4	-2	-1	8	6	0.001693	0.000003
-4	-2	-1	1	7	0.000030	0.000014
-4	-2	-1	2	7	0.000088	0.000051
-4	-2	-1	3	7	0.000000	0.000000
-4	-2	-1	4	7	-0.000004	0.000002
-4	-2	-1	5	7	-0.000020	0.000102
-4	-2	-1	6	7	0.000243	-0.000026
-4	-2	-1	7	7	0.001294	0.000000
-4	-2	-1	8	7	0.001165	0.000059
-4	-2	-1	1	8	-0.000019	0.000028
-4	-2	-1	2	8	-0.000066	0.000006
-4	-2	-1	3	8	0.000004	-0.000002
-4	-2	-1	4	8	0.000000	0.000000
-4	-2	-1	5	8	-0.002648	0.000015
-4	-2	-1	6	8	0.001693	-0.000003
-4	-2	-1	7	8	0.001165	-0.000059
-4	-2	-1	8	8	0.000785	0.000000
-4	-2	0	1	1	-0.004540	0.000000
-4	-2	0	2	1	-0.000091	0.000001
-4	-2	0	3	1	0.000923	-0.000299
-4	-2	0	4	1	0.006363	-0.000008
-4	-2	0	5	1	0.000000	0.000000
-4	-2	0	6	1	0.000036	-0.000032
-4	-2	0	7	1	0.000002	0.000002
-4	-2	0	8	1	0.000006	-0.000001
-4	-2	0	1	2	0.000091	0.000001
-4	-2	0	2	2	-0.000844	0.000000
-4	-2	0	3	2	0.000001	-0.000003
-4	-2	0	4	2	0.000010	0.000001
-4	-2	0	5	2	0.000036	-0.000032
-4	-2	0	6	2	0.000000	0.000000
-4	-2	0	7	2	0.000162	-0.000038
-4	-2	0	8	2	-0.000105	-0.000013
-4	-2	0	1	3	-0.000923	-0.000299
-4	-2	0	2	3	0.000001	0.000003
-4	-2	0	3	3	0.001448	0.000000
-4	-2	0	4	3	0.003185	0.000055
-4	-2	0	5	3	0.000002	0.000002
-4	-2	0	6	3	-0.000162	0.000038
-4	-2	0	7	3	0.000000	0.000000
-4	-2	0	8	3	-0.000010	0.000001
-4	-2	0	1	4	-0.006363	-0.000008
-4	-2	0	2	4	0.000010	-0.000001
-4	-2	0	3	4	0.003185	-0.000055
-4	-2	0	4	4	0.001878	0.000000
-4	-2	0	5	4	0.000006	-0.000001
-4	-2	0	6	4	0.000105	0.000013
-4	-2	0	7	4	0.000010	-0.000001
-4	-2	0	8	4	0.000000	0.000000
-4	-2	0	1	5	0.000000	0.000000
-4	-2	0	2	5	-0.000036	-0.000032
-4	-2	0	3	5	-0.000002	0.000002
-4	-2	0	4	5	-0.000006	-0.000001
-4	-2	0	5	5	-0.004540	0.000000
-4	-2	0	6	5	-0.000091	-0.000001
-4	-2	0	7	5	0.000923	0.000299
-4	-2	0	8	5	0.006363	0.000008
-4	-2	0	1	6	-0.000036	-0.000032
-4	-2	0	2	6	0.000000	0.000000
-4	-2	0	3	6	-0.000162	-0.000038
-4	-2	0	4	6	0.000105	-0.000013
-4	-2	0	5	6	0.000091	-0.000001
-4	-2	0	6	6	-0.000844	0.000000
-4	-2	0	7	6	0.000001	0.000003
-4	-2	0	8	6	0.000010	-0.000001
-4	-2	0	1	7	-0.000002	0.000002
-4	-2	0	2	7	0.000162	0.000038
-4	-2	0	3	7	0.000000	0.000000
-4	-2	0	4	7	0.000010	0.000001
-4	-2	0	5	7	-0.000923	0.000299
-4	-2	0	6	7	0.000001	-0.000003
-4	-2	0	7	7	0.001448	0.000000
-4	-2	0	8	7	0.003185	-0.000055
-4	-2	0	1	8	-0.000006	-0.000001
-4	-2	0	2	8	-0.000105	0.000013
-4	-2	0	3	8	-0.000010	-0.000001
-4	-2	0	4	8	0.000000	0.000000
-4	-2	0	5	8	-0.006363	0.000008
-4	-2	0	6	8	0.000010	0.000001
-4	-2	0	7	8	0.003185	0.000055
-4	-2	0	8	8	0.001878	0.000000
-4	-2	1	1	1	-0.001407	0.000000
-4	-2	1	2	1	-0.001116	-0.000018
-4	-2	1	3	1	0.000043	-0.000094
-4	-2	1	4	1	0.002689	-0.000026
-4	-2	1	5	1	0.000000	0.000000
-4	-2	1	6	1	0.000023	-0.000027
-4	-2	1	7	1	0.000033	-0.000004
-4	-2	1	8	1	-0.000010	-0.000042
-4	-2	1	1	2	0.001116	-0.000018
-4	-2	1	2	2	-0.000406	0.000000
-4	-2	1	3	2	-0.000271	0.000024
-4	-2	1	4	2	-0.001694	0.000009
-4	-2	1	5	2	0.000023	-0.000027
-4	-2	1	6	2	0.000000	0.000000
-4	-2	1	7	2	0.000092	-0.000045
-4	-2	1	8	2	-0.000067	0.000006
-4	-2	1	1	3	-0.000043	-0.000094
-4	-2	1	2	3	-0.000271	-0.000024
-4	-2	1	3	3	0.001280	0.000000
-4	-2	1	4	3	0.001352	-0.000076
-4	-2	1	5	3	0.000033	-0.000004
-4	-2	1	6	3	-0.000092	0.000045
-4	-2	1	7	3	0.000000	0.000000
-4	-2	1	8	3	0.000006	0.000001
-4	-2	1	1	4	-0.002689	-0.000026
-4	-2	1	2	4	-0.001694	-0.000009
-4	-2	1	3	4	0.001352	0.000076
-4	-2	1	4	4	0.000676	0.000000
-4	-2	1	5	4	-0.000010	-0.000042
-4	-2	1	6	4	0.000067	-0.000006
-4	-2	1	7	4	-0.000006	-0.000001
-4	-2	1	8	4	0.000000	0.000000
-4	-2	1	1	5	0.000000	0.000000
-4	-2	1	2	5	-0.000023	-0.000027
-4	-2	1	3	5	-0.000033	-0.000004
-4	-2	1	4	5	0.000010	-0.000042
-4	-2	1	5	5	-0.001407	0.000000
-4	-2	1	6	5	-0.001116	0.000018
-4	-2	1	7	5	0.000043	0.000094
-4	-2	1	8	5	0.002689	0.000026
-4	-2	1	1	6	-0.000023	-0.000027
-4	-2	1	2	6	0.000000	0.000000
-4	-2	1	3	6	-0.000092	-0.000045
-4	-2	1	4	6	0.000067	0.000006
-4	-2	1	5	6	0.001116	0.000018
-4	-2	1	6	6	-0.000406	0.000000
-4	-2	1	7	6	-0.000271	-0.000024
-4	-2	1	8	6	-0.001694	-0.000009
-4	-2	1	1	7	-0.000033	-0.000004
-4	-2	1	2	7	0.000092	0.000045
-4	-2	1	3	7	0.000000	0.000000
-4	-2	1	4	7	-0.000006	0.000001
-4	-2	1	5	7	-0.000043	0.000094
-4	-2	1	6	7	-0.000271	0.000024
-4	-2	1	7	7	0.001280	0.000000
-4	-2	1	8	7	0.001352	0.000076
-4	-2	1	1	8	0.000010	-0.000042
-4	-2	1	2	8	-0.000067	-0.000006
-4	-2	1	3	8	0.000006	-0.000001
-4	-2	1	4	8	0.000000	0.000000
-4	-2	1	5	8	-0.002689	0.000026
-4	-2	1	6	8	-0.001694	0.000009
-4	-2	1	7	8	0.001352	-0.000076
-4	-2	1	8	8	0.000676	0.000000
-4	-2	2	1	1	-0.000491	0.000000
-4	-2	2	2	1	-0.000538	-0.000016
-4	-2	2	3	1	-0.000018	0.000051
-4	-2	2	4	1	0.000567	0.000001
-4	-2	2	5	1	0.000000	0.000000
-4	-2	2	6	1	-0.000001	0.000002
-4	-2	2	7	1	-0.000042	-0.000002
-4	-2	2	8	1	-0.000015	-0.000020
-4	-2	2	1	2	0.000538	-0.000016
-4	-2	2	2	2	0.000157	0.000000
-4	-2	2	3	2	-0.000011	-0.000027
-4	-2	2	4	2	-0.001039	-0.000001
-4	-2	2	5	2	-0.000001	0.000002
-4	-2	2	6	2	0.000000	0.000000
-4	-2	2	7	2	-0.000006	-0.000009
-4	-2	2	8	2	-0.000004	0.000004
-4	-2	2	1	3	0.000018	0.000051
-4	-2	2	2	3	-0.000011	0.000027
-4	-2	2	3	3	0.000768	0.000000
-4	-2	2	4	3	-0.000035	0.000003
-4	-2	2	5	3	-0.000042	-0.000002
-4	-2	2	6	3	0.000006	0.000009
-4	-2	2	7	3	0.000000	0.000000
-4	-2	2	8	3	0.000027	-0.000003
-4	-2	2	1	4	-0.000567	0.000001
-4	-2	2	2	4	-0.001039	0.000001
-4	-2	2	3	4	-0.000035	-0.000003
-4	-2	2	4	4	0.000229	0.000000
-4	-2	2	5	4	-0.000015	-0.000020
-4	-2	2	6	4	0.000004	-0.000004
-4	-2	2	7	4	-0.000027	0.000003
-4	-2	2	8	4	0.000000	0.000000
-4	-2	2	1	5	0.000000	0.000000
-4	-2	2	2	5	0.000001	0.000002
-4	-2	2	3	5	0.000042	-0.000002
-4	-2	2	4	5	0.000015	-0.000020
-4	-2	2	5	5	-0.000491	0.000000
-4	-2	2	6	5	-0.000538	0.000016
-4	-2	2	7	5	-0.000018	-0.000051
-4	-2	2	8	5	0.000567	-0.000001
-4	-2	2	1	6	0.000001	0.000002
-4	-2	2	2	6	0.000000	0.000000
-4	-2	2	3	6	0.000006	-0.000009
-4	-2	2	4	6	0.000004	0.000004
-4	-2	2	5	6	0.000538	0.000016
-4	-2	2	6	6	0.000157	0.000000
-4	-2	2	7	6	-0.000011	0.000027
-4	-2	2	8	6	-0.001039	0.000001
-4	-2	2	1	7	0.000042	-0.000002
-4	-2	2	2	7	-0.000006	0.000009
-4	-2	2	3	7	0.000000	0.000000
-4	-2	2	4	7	-0.000027	-0.000003
-4	-2	2	5	7	0.000018	-0.000051
-4	-2	2	6	7	-0.000011	-0.000027
-4	-2	2	7	7	0.000768	0.000000
-4	-2	2	8	7	-0.000035	-0.000003
-4	-2	2	1	8	0.000015	-0.000020
-4	-2	2	2	8	-0.000004	-0.000004
-4	-2	2	3	8	0.000027	0.000003
-4	-2	2	4	8	0.000000	0.000000
-4	-2	2	5	8	-0.000567	-0.000001
-4	-2	2	6	8	-0.001039	-0.000001
-4	-2	2	7	8	-0.000035	0.000003
-4	-2	2	8	8	0.000229	0.000000
-4	-2	3	1	1	-0.000727	0.000000
-4	-2	3	2	1	-0.000160	-0.000013
-4	-2	3	3	1	0.000066	-0.000049
-4	-2	3	4	1	0.000631	0.000022
-4	-2	3	5	1	0.000000	0.000000
-4	-2	3	6	1	-0.000026	0.000075
-4	-2	3	7	1	-0.000058	-0.000001
-4	-2	3	8	1	-0.000009	-0.000009
-4	-2	3	1	2	0.000160	-0.000013
-4	-2	3	2	2	0.000324	0.000000
-4	-2	3	3	2	0.000072	-0.000063
-4	-2	3	4	2	-0.000365	-0.000007
-4	-2	3	5	2	-0.000026	0.000075
-4	-2	3	6	2	0.000000	0.000000
-4	-2	3	7	2	-0.000055	0.000006
-4	-2	3	8	2	0.000002	-0.000027
-4	-2	3	1	3	-0.000066	-0.000049
-4	-2	3	2	3	0.000072	0.000063
-4	-2	3	3	3	0.000351	0.000000
-4	-2	3	4	3	0.000071	0.000016
-4	-2	3	5	3	-0.000058	-0.000001
-4	-2	3	6	3	0.000055	-0.000006
-4	-2	3	7	3	0.000000	0.000000
-4	-2	3	8	3	0.000022	0.000008
-4	-2	3	1	4	-0.000631	0.000022
-4	-2	3	2	4	-0.000365	0.000007
-4	-2	3	3	4	0.000071	-0.000016
-4	-2	3	4	4	0.000173	0.000000
-4	-2	3	5	4	-0.000009	-0.000009
-4	-2	3	6	4	-0.000002	0.000027
-4	-2	3	7	4	-0.000022	-0.000008
-4	-2	3	8	4	0.000000	0.000000
-4	-2	3	1	5	0.000000	0.000000
-4	-2	3	2	5	0.000026	0.000075
-4	-2	3	3	5	0.000058	-0.000001
-4	-2	3	4	5	0.000009	-0.000009
-4	-2	3	5	5	-0.000727	0.000000
-4	-2	3	6	5	-0.000160	0.000013
-4	-2	3	7	5	0.000066	0.000049
-4	-2	3	8	5	0.000631	-0.000022
-4	-2	3	1	6	0.000026	0.000075
-4	-2	3	2	6	0.000000	0.000000
-4	-2	3	3	6	0.000055	0.000006
-4	-2	3	4	6	-0.000002	-0.000027
-4	-2	3	5	6	0.000160	0.000013
-4	-2	3	6	6	0.000324	0.000000
-4	-2	3	7	6	0.000072	0.000063
-4	-2	3	8	6	-0.000365	0.000007
-4	-2	3	1	7	0.000058	-0.000001
-4	-2	3	2	7	-0.000055	-0.000006
-4	-2	3	3	7	0.000000	0.000000
-4	-2	3	4	7	-0.000022	0.000008
-4	-2	3	5	7	-0.000066	0.000049
-4	-2	3	6	7	0.000072	-0.000063
-4	-2	3	7	7	0.000351	0.000000
-4	-2	3	8	7	0.000071	-0.000016
-4	-2	3	1	8	0.000009	-0.000009
-4	-2	3	2	8	0.000002	0.000027
-4	-2	3	3	8	0.000022	-0.000008
-4	-2	3	4	8	0.000000	0.000000
-4	-2	3	5	8	-0.000631	-0.000022
-4	-2	3	6	8	-0.000365	-0.000007
-4	-2	3	7	8	0.000071	0.000016
-4	-2	3	8	8	0.000173	0.000000
-4	-2	4	1	1	-0.000578	0.000000
-4	-2	4	2	1	-0.000102	-0.000013
-4	-2	4	3	1	0.000074	-0.000135
-4	-2	4	4	1	0.000794	0.000005
-4	-2	4	5	1	0.000000	0.000000
-4	-2	4	6	1	-0.000019	0.000134
-4	-2	4	7	1	-0.000017	0.000013
-4	-2	4	8	1	-0.000004	0.000004
-4	-2	4	1	2	0.000102	-0.000013
-4	-2	4	2	2	0.000325	0.000000
-4	-2	4	3	2	-0.000024	-0.000037
-4	-2	4	4	2	-0.000075	-0.000012
-4	-2	4	5	2	-0.000019	0.000134
-4	-2	4	6	2	0.000000	0.000000
-4	-2	4	7	2	-0.000081	0.000034
-4	-2	4	8	2	0.000010	-0.000037
-4	-2	4	1	3	-0.000074	-0.000135
-4	-2	4	2	3	-0.000024	0.000037
-4	-2	4	3	3	0.000291	0.000000
-4	-2	4	4	3	0.000080	0.000021
-4	-2	4	5	3	-0.000017	0.000013
-4	-2	4	6	3	0.000081	-0.000034
-4	-2	4	7	3	0.000000	0.000000
-4	-2	4	8	3	0.000006	0.000003
-4	-2	4	1	4	-0.000794	0.000005
-4	-2	4	2	4	-0.000075	0.000012
-4	-2	4	3	4	0.000080	-0.000021
-4	-2	4	4	4	0.000096	0.000000
-4	-2	4	5	4	-0.000004	0.000004
-4	-2	4	6	4	-0.000010	0.000037
-4	-2	4	7	4	-0.000006	-0.000003
-4	-2	4	8	4	0.000000	0.000000
-4	-2	4	1	5	0.000000	0.000000
-4	-2	4	2	5	0.000019	0.000134
-4	-2	4	3	5	0.000017	0.000013
-4	-2	4	4	5	0.000004	0.000004
-4	-2	4	5	5	-0.000578	0.000000
-4	-2	4	6	5	-0.000102	0.000013
-4	-2	4	7	5	0.000074	0.000135
-4	-2	4	8	5	0.000794	-0.000005
-4	-2	4	1	6	0.000019	0.000134
-4	-2	4	2	6	0.000000	0.000000
-4	-2	4	3	6	0.000081	0.000034
-4	-2	4	4	6	-0.000010	-0.000037
-4	-2	4	5	6	0.000102	0.000013
-4	-2	4	6	6	0.000325	0.000000
-4	-2	4	7	6	-0.000024	0.000037
-4	-2	4	8	6	-0.000075	0.000012
-4	-2	4	1	7	0.000017	0.000013
-4	-2	4	2	7	-0.000081	-0.000034
-4	-2	4	3	7	0.000000	0.000000
-4	-2	4	4	7	-0.000006	0.000003
-4	-2	4	5	7	-0.000074	0.000135
-4	-2	4	6	7	-0.000024	-0.000037
-4	-2	4	7	7	0.000291	0.000000
-4	-2	4	8	7	0.000080	-0.000021
-4	-2	4	1	8	0.000004	0.000004
-4	-2	4	2	8	0.000010	0.000037
-4	-2	4	3	8	0.000006	-0.000003
-4	-2	4	4	8	0.000000	0.000000
-4	-2	4	5	8	-0.000794	-0.000005
-4	-2	4	6	8	-0.000075	-0.000012
-4	-2	4	7	8	0.000080	0.000021
-4	-2	4	8	8	0.000096	0.000000
-4	-1	-4	1	1	-0.001545	0.000000
-4	-1	-4	2	1	0.000312	0.000004
-4	-1	-4	3	1	0.000361	-0.000127
-4	-1	-4	4	1	0.000868	0.000006
-4	-1	-4	5	1	0.000000	0.000000
-4	-1	-4	6	1	0.000040	0.000127
-4	-1	-4	7	1	-0.000037	-0.000004
-4	-1	-4	8	1	0.000000	-0.000004
-4	-1	-4	1	2	-0.000312	0.000004
-4	-1	-4	2	2	0.001011	0.000000
-4	-1	-4	3	2	0.000133	0.000032
-4	-1	-4	4	2	0.000157	0.000024
-4	-1	-4	5	2	0.000040	0.000127
-4	-1	-4	6	2	0.000000	0.000000
-4	-1	-4	7	2	-0.000127	0.000034
-4	-1	-4	8	2	-0.000009	-0.000009
-4	-1	-4	1	3	-0.000361	-0.000127
-4	-1	-4	2	3	0.000133	-0.000032
-4	-1	-4	3	3	0.001015	0.000000
-4	-1	-4	4	3	0.000142	0.000009
-4	-1	-4	5	3	-0.000037	-0.000004
-4	-1	-4	6	3	0.000127	-0.000034
-4	-1	-4	7	3	0.000000	0.000000
-4	-1	-4	8	3	0.000011	-0.000024
-4	-1	-4	1	4	-0.000868	0.000006
-4	-1	-4	2	4	0.000157	-0.000024
-4	-1	-4	3	4	0.000142	-0.000009
-4	-1	-4	4	4	-0.000299	0.000000
-4	-1	-4	5	4	0.000000	-0.000004
-4	-1	-4	6	4	0.000009	0.000009
-4	-1	-4	7	4	-0.000011	0.000024
-4	-1	-4	8	4	0.000000	0.000000
-4	-1	-4	1	5	0.000000	0.000000
-4	-1	-4	2	5	-0.000040	0.000127
-4	-1	-4	3	5	0.000037	-0.000004
-4	-1	-4	4	5	0.000000	-0.000004
-4	-1	-4	5	5	-0.001545	0.000000
-4	-1	-4	6	5	0.000312	-0.000004
-4	-1	-4	7	5	0.000361	0.000127
-4	-1	-4	8	5	0.000868	-0.000006
-4	-1	-4	1	6	-0.000040	0.000127
-4	-1	-4	2	6	0.000000	0.000000
-4	-1	-4	3	6	0.000127	0.000034
-4	-1	-4	4	6	0.000009	-0.000009
-4	-1	-4	5	6	-0.000312	-0.000004
-4	-1	-4	6	6	0.001011	0.000000
-4	-1	-4	7	6	0.000133	-0.000032
-4	-1	-4	8	6	0.000157	-0.000024
-4	-1	-4	1	7	0.000037	-0.000004
-4	-1	-4	2	7	-0.000127	-0.000034
-4	-1	-4	3	7	0.000000	0.000000
-4	-1	-4	4	7	-0.000011	-0.000024
-4	-1	-4	5	7	-0.000361	0.000127
-4	-1	-4	6	7	0.000133	0.000032
-4	-1	-4	7	7	0.001015	0.000000
-4	-1	-4	8	7	0.000142	-0.000009
-4	-1	-4	1	8	0.000000	-0.000004
-4	-1	-4	2	8	-0.000009	0.000009
-4	-1	-4	3	8	0.000011	0.000024
-4	-1	-4	4	8	0.000000	0.000000
-4	-1	-4	5	8	-0.000868	-0.000006
-4	-1	-4	6	8	0.000157	0.000024
-4	-1	-4	7	8	0.000142	0.000009
-4	-1	-4	8	8	-0.000299	0.000000
-4	-1	-3	1	1	-0.001861	0.000000
-4	-1	-3	2	1	0.000969	0.000022
-4	-1	-3	3	1	0.000523	-0.000044
-4	-1	-3	4	1	0.000914	0.000024
-4	-1	-3	5	1	0.000000	0.000000
-4	-1	-3	6	1	0.000018	0.000067
-4	-1	-3	7	1	-0.000029	-0.000024
-4	-1	-3	8	1	-0.000002	0.000000
-4	-1	-3	1	2	-0.000969	0.000022
-4	-1	-3	2	2	0.001002	0.000000
-4	-1	-3	3	2	0.000275	0.000040
-4	-1	-3	4	2	0.000586	0.000046
-4	-1	-3	5	2	0.000018	0.000067
-4	-1	-3	6	2	0.000000	0.000000
-4	-1	-3	7	2	-0.000055	0.000030
-4	-1	-3	8	2	0.000006	0.000004
-4	-1	-3	1	3	-0.000523	-0.000044
-4	-1	-3	2	3	0.000275	-0.000040
-4	-1	-3	3	3	0.001115	0.000000
-4	-1	-3	4	3	0.000171	0.000006
-4	-1	-3	5	3	-0.000029	-0.000024
-4	-1	-3	6	3	0.000055	-0.000030
-4	-1	-3	7	3	0.000000	0.000000
-4	-1	-3	8	3	0.000012	-0.000033
-4	-1	-3	1	4	-0.000914	0.000024
-4	-1	-3	2	4	0.000586	-0.000046
-4	-1	-3	3	4	0.000171	-0.000006
-4	-1	-3	4	4	-0.000302	0.000000
-4	-1	-3	5	4	-0.000002	0.000000
-4	-1	-3	6	4	-0.000006	-0.000004
-4	-1	-3	7	4	-0.000012	0.000033
-4	-1	-3	8	4	0.000000	0.000000
-4	-1	-3	1	5	0.000000	0.000000
-4	-1	-3	2	5	-0.000018	0.000067
-4	-1	-3	3	5	0.000029	-0.000024
-4	-1	-3	4	5	0.000002	0.000000
-4	-1	-3	5	5	-0.001861	0.000000
-4	-1	-3	6	5	0.000969	-0.000022
-4	-1	-3	7	5	0.000523	0.000044
-4	-1	-3	8	5	0.000914	-0.000024
-4	-1	-3	1	6	-0.000018	0.000067
-4	-1	-3	2	6	0.000000	0.000000
-4	-1	-3	3	6	0.000055	0.000030
-4	-1	-3	4	6	-0.000006	0.000004
-4	-1	-3	5	6	-0.000969	-0.000022
-4	-1	-3	6	6	0.001002	0.000000
-4	-1	-3	7	6	0.000275	-0.000040
-4	-1	-3	8	6	0.000586	-0.000046
-4	-1	-3	1	7	0.000029	-0.000024
-4	-1	-3	2	7	-0.000055	-0.000030
-4	-1	-3	3	7	0.000000	0.000000
-4	-1	-3	4	7	-0.000012	-0.000033
-4	-1	-3	5	7	-0.000523	0.000044
-4	-1	-3	6	7	0.000275	0.000040
-4	-1	-3	7	7	0.001115	0.000000
-4	-1	-3	8	7	0.000171	-0.000006
-4	-1	-3	1	8	0.000002	0.000000
-4	-1	-3	2	8	0.000006	-0.000004
-4	-1	-3	3	8	0.000012	0.000033
-4	-1	-3	4	8	0.000000	0.000000
-4	-1	-3	5	8	-0.000914	-0.000024
-4	-1	-3	6	8	0.000586	0.000046
-4	-1	-3	7	8	0.000171	0.000006
-4	-1	-3	8	8	-0.000302	0.000000
-4	-1	-2	1	1	-0.001416	0.000000
-4	-1	-2	2	1	0.002605	0.000020
-4	-1	-2	3	1	0.000014	-0.000031
-4	-1	-2	4	1	0.001022	0.000031
-4	-1	-2	5	1	0.000000	0.000000
-4	-1	-2	6	1	-0.000015	-0.000028
-4	-1	-2	7	1	-0.000101	-0.000014
-4	-1	-2	8	1	0.000020	0.000035
-4	-1	-2	1	2	-0.002605	0.000020
-4	-1	-2	2	2	0.000763	0.000000
-4	-1	-2	3	2	0.001141	-0.000005
-4	-1	-2	4	2	0.001721	0.000066
-4	-1	-2	5	2	-0.000015	-0.000028
-4	-1	-2	6	2	0.000000	0.000000
-4	-1	-2	7	2	0.000059	0.000002
-4	-1	-2	8	2	0.000002	-0.000006
-4	-1	-2	1	3	-0.000014	-0.000031
-4	-1	-2	2	3	0.001141	0.000005
-4	-1	-2	3	3	0.001279	0.000000
-4	-1	-2	4	3	0.000249	-0.000088
-4	-1	-2	5	3	-0.000101	-0.000014
-4	-1	-2	6	3	-0.000059	-0.000002
-4	-1	-2	7	3	0.000000	0.000000
-4	-1	-2	8	3	0.000026	-0.000050
-4	-1	-2	1	4	-0.001022	0.000031
-4	-1	-2	2	4	0.001721	-0.000066
-4	-1	-2	3	4	0.000249	0.000088
-4	-1	-2	4	4	-0.000312	0.000000
-4	-1	-2	5	4	0.000020	0.000035
-4	-1	-2	6	4	-0.000002	0.000006
-4	-1	-2	7	4	-0.000026	0.000050
-4	-1	-2	8	4	0.000000	0.000000
-4	-1	-2	1	5	0.000000	0.000000
-4	-1	-2	2	5	0.000015	-0.000028
-4	-1	-2	3	5	0.000101	-0.000014
-4	-1	-2	4	5	-0.000020	0.000035
-4	-1	-2	5	5	-0.001416	0.000000
-4	-1	-2	6	5	0.002605	-0.000020
-4	-1	-2	7	5	0.000014	0.000031
-4	-1	-2	8	5	0.001022	-0.000031
-4	-1	-2	1	6	0.000015	-0.000028
-4	-1	-2	2	6	0.000000	0.000000
-4	-1	-2	3	6	-0.000059	0.000002
-4	-1	-2	4	6	-0.000002	-0.000006
-4	-1	-2	5	6	-0.002605	-0.000020
-4	-1	-2	6	6	0.000763	0.000000
-4	-1	-2	7	6	0.001141	0.000005
-4	-1	-2	8	6	0.001721	-0.000066
-4	-1	-2	1	7	0.000101	-0.000014
-4	-1	-2	2	7	0.000059	-0.000002
-4	-1	-2	3	7	0.000000	0.000000
-4	-1	-2	4	7	-0.000026	-0.000050
-4	-1	-2	5	7	-0.000014	0.000031
-4	-1	-2	6	7	0.001141	-0.000005
-4	-1	-2	7	7	0.001279	0.000000
-4	-1	-2	8	7	0.000249	0.000088
-4	-1	-2	1	8	-0.000020	0.000035
-4	-1	-2	2	8	0.000002	0.000006
-4	-1	-2	3	8	0.000026	0.000050
-4	-1	-2	4	8	0.000000	0.000000
-4	-1	-2	5	8	-0.001022	-0.000031
-4	-1	-2	6	8	0.001721	0.000066
-4	-1	-2	7	8	0.000249	-0.000088
-4	-1	-2	8	8	-0.000312	0.000000
-4	-1	-1	1	1	-0.005463	0.000000
-4	-1	-1	2	1	0.004650	0.000033
-4	-1	-1	3	1	0.001972	-0.000108
-4	-1	-1	4	1	0.004714	0.000034
-4	-1	-1	5	1	0.000000	0.000000
-4	-1	-1	6	1	0.000033	-0.000049
-4	-1	-1	7	1	-0.000107	0.000000
-4	-1	-1	8	1	0.000032	0.000049
-4	-1	-1	1	2	-0.004650	0.000033
-4	-1	-1	2	2	-0.001451	0.000000
-4	-1	-1	3	2	0.002707	0.000038
-4	-1	-1	4	2	0.002506	0.000001
-4	-1	-1	5	2	0.000033	-0.000049
-4	-1	-1	6	2	0.000000	0.000000
-4	-1	-1	7	2	0.000160	-0.000024
-4	-1	-1	8	2	-0.000001	-0.000011
-4	-1	-1	1	3	-0.001972	-0.000108
-4	-1	-1	2	3	0.002707	-0.000038
-4	-1	-1	3	3	0.008505	0.000000
-4	-1	-1	4	3	0.002745	-0.000160
-4	-1	-1	5	3	-0.000107	0.000000
-4	-1	-1	6	3	-0.000160	0.000024
-4	-1	-1	7	3	0.000000	0.000000
-4	-1	-1	8	3	-0.000039	-0.000024
-4	-1	-1	1	4	-0.004714	0.000034
-4	-1	-1	2	4	0.002506	-0.000001
-4	-1	-1	3	4	0.002745	0.000160
-4	-1	-1	4	4	-0.001416	0.000000
-4	-1	-1	5	4	0.000032	0.000049
-4	-1	-1	6	4	0.000001	0.000011
-4	-1	-1	7	4	0.000039	0.000024
-4	-1	-1	8	4	0.000000	0.000000
-4	-1	-1	1	5	0.000000	0.000000
-4	-1	-1	2	5	-0.000033	-0.000049
-4	-1	-1	3	5	0.000107	0.000000
-4	-1	-1	4	5	-0.000032	0.000049
-4	-1	-1	5	5	-0.005463	0.000000
-4	-1	-1	6	5	0.004650	-0.000033
-4	-1	-1	7	5	0.001972	0.000108
-4	-1	-1	8	5	0.004714	-0.000034
-4	-1	-1	1	6	-0.000033	-0.000049
-4	-1	-1	2	6	0.000000	0.000000
-4	-1	-1	3	6	-0.000160	-0.000024
-4	-1	-1	4	6	0.000001	-0.000011
-4	-1	-1	5	6	-0.004650	-0.000033
-4	-1	-1	6	6	-0.001451	0.000000
-4	-1	-1	7	6	0.002707	-0.000038
-4	-1	-1	8	6	0.002506	-0.000001
-4	-1	-1	1	7	0.000107	0.000000
-4	-1	-1	2	7	0.000160	0.000024
-4	-1	-1	3	7	0.000000	0.000000
-4	-1	-1	4	7	0.000039	-0.000024
-4	-1	-1	5	7	-0.001972	0.000108
-4	-1	-1	6	7	0.002707	0.000038
-4	-1	-1	7	7	0.008505	0.000000
-4	-1	-1	8	7	0.002745	0.000160
-4	-1	-1	1	8	-0.000032	0.000049
-4	-1	-1	2	8	-0.000001	0.000011
-4	-1	-1	3	8	-0.000039	0.000024
-4	-1	-1	4	8	0.000000	0.000000
-4	-1	-1	5	8	-0.004714	-0.000034
-4	-1	-1	6	8	0.002506	0.000001
-4	-1	-1	7	8	0.002745	-0.000160
-4	-1	-1	8	8	-0.001416	0.000000
-4	-1	0	1	1	-0.017464	0.000000
-4	-1	0	2	1	-0.000070	0.000007
-4	-1	0	3	1	0.009031	-0.000230
-4	-1	0	4	1	0.011929	0.000198
-4	-1	0	5	1	0.000000	0.000000
-4	-1	0	6	1	0.000184	0.000086
-4	-1	0	7	1	0.000017	-0.000005
-4	-1	0	8	1	0.000005	-0.000010
-4	-1	0	1	2	0.000070	0.000007
-4	-1	0	2	2	-0.003338	0.000000
-4	-1	0	3	2	0.000091	0.000003
-4	-1	0	4	2	0.000009	0.000002
-4	-1	0	5	2	0.000184	0.000086
-4	-1	0	6	2	0.000000	0.000000
-4	-1	0	7	2	0.000081	-0.000086
-4	-1	0	8	2	0.000007	-0.000048
-4	-1	0	1	3	-0.009031	-0.000230
-4	-1	0	2	3	0.000091	-0.000003
-4	-1	0	3	3	0.024213	0.000000
-4	-1	0	4	3	0.007286	0.000407
-4	-1	0	5	3	0.000017	-0.000005
-4	-1	0	6	3	-0.000081	0.000086
-4	-1	0	7	3	0.000000	0.000000
-4	-1	0	8	3	-0.000005	-0.000007
-4	-1	0	1	4	-0.011929	0.000198
-4	-1	0	2	4	0.000009	-0.000002
-4	-1	0	3	4	0.007286	-0.000407
-4	-1	0	4	4	-0.001685	0.000000
-4	-1	0	5	4	0.000005	-0.000010
-4	-1	0	6	4	-0.000007	0.000048
-4	-1	0	7	4	0.000005	0.000007
-4	-1	0	8	4	0.000000	0.000000
-4	-1	0	1	5	0.000000	0.000000
-4	-1	0	2	5	-0.000184	0.000086
-4	-1	0	3	5	-0.000017	-0.000005
-4	-1	0	4	5	-0.000005	-0.000010
-4	-1	0	5	5	-0.017464	0.000000
-4	-1	0	6	5	-0.000070	-0.000007
-4	-1	0	7	5	0.009031	0.000230
-4	-1	0	8	5	0.011929	-0.000198
-4	-1	0	1	6	-0.000184	0.000086
-4	-1	0	2	6	0.000000	0.000000
-4	-1	0	3	6	-0.000081	-0.000086
-4	-1	0	4	6	-0.000007	-0.000048
-4	-1	0	5	6	0.000070	-0.000007
-4	-1	0	6	6	-0.003338	0.000000
-4	-1	0	7	6	0.000091	-0.000003
-4	-1	0	8	6	0.000009	-0.000002
-4	-1	0	1	7	-0.000017	-0.000005
-4	-1	0	2	7	0.000081	0.000086
-4	-1	0	3	7	0.000000	0.000000
-4	-1	0	4	7	0.000005	-0.000007
-4	-1	0	5	7	-0.009031	0.000230
-4	-1	0	6	7	0.000091	0.000003
-4	-1	0	7	7	0.024213	0.000000
-4	-1	0	8	7	0.007286	-0.000407
-4	-1	0	1	8	-0.000005	-0.000010
-4	-1	0	2	8	0.000007	0.000048
-4	-1	0	3	8	-0.000005	0.000007
-4	-1	0	4	8	0.000000	0.000000
-4	-1	0	5	8	-0.011929	-0.000198
-4	-1	0	6	8	0.000009	0.000002
-4	-1	0	7	8	0.007286	0.000407
-4	-1	0	8	8	-0.001685	0.000000
-4	-1	1	1	1	-0.005425	0.000000
-4	-1	1	2	1	-0.004815	-0.000019
-4	-1	1	3	1	0.002302	-0.000110
-4	-1	1	4	1	0.004745	0.000031
-4	-1	1	5	1	0.000000	0.000000
-4	-1	1	6	1	0.000046	-0.000045
-4	-1	1	7	1	0.000114	0.000005
-4	-1	1	8	1	-0.000026	-0.000056
-4	-1	1	1	2	0.004815	-0.000019
-4	-1	1	2	2	-0.001412	0.000000
-4	-1	1	3	2	-0.002835	-0.000047
-4	-1	1	4	2	-0.002430	-0.000008
-4	-1	1	5	2	0.000046	-0.000045
-4	-1	1	6	2	0.000000	0.000000
-4	-1	1	7	2	0.000161	-0.000048
-4	-1	1	8	2	0.000002	-0.000011
-4	-1	1	1	3	-0.002302	-0.000110
-4	-1	1	2	3	-0.002835	0.000047
-4	-1	1	3	3	0.008623	0.000000
-4	-1	1	4	3	0.002761	-0.000144
-4	-1	1	5	3	0.000114	0.000005
-4	-1	1	6	3	-0.000161	0.000048
-4	-1	1	7	3	0.000000	0.000000
-4	-1	1	8	3	0.000042	0.000030
-4	-1	1	1	4	-0.004745	0.000031
-4	-1	1	2	4	-0.002430	0.000008
-4	-1	1	3	4	0.002761	0.000144
-4	-1	1	4	4	-0.001470	0.000000
-4	-1	1	5	4	-0.000026	-0.000056
-4	-1	1	6	4	-0.000002	0.000011
-4	-1	1	7	4	-0.000042	-0.000030
-4	-1	1	8	4	0.000000	0.000000
-4	-1	1	1	5	0.000000	0.000000
-4	-1	1	2	5	-0.000046	-0.000045
-4	-1	1	3	5	-0.000114	0.000005
-4	-1	1	4	5	0.000026	-0.000056
-4	-1	1	5	5	-0.005425	0.000000
-4	-1	1	6	5	-0.004815	0.000019
-4	-1	1	7	5	0.002302	0.000110
-4	-1	1	8	5	0.004745	-0.000031
-4	-1	1	1	6	-0.000046	-0.000045
-4	-1	1	2	6	0.000000	0.000000
-4	-1	1	3	6	-0.000161	-0.000048
-4	-1	1	4	6	-0.000002	-0.000011
-4	-1	1	5	6	0.004815	0.000019
-4	-1	1	6	6	-0.001412	0.000000
-4	-1	1	7	6	-0.002835	0.000047
-4	-1	1	8	6	-0.002430	0.000008
-4	-1	1	1	7	-0.000114	0.000005
-4	-1	1	2	7	0.000161	0.000048
-4	-1	1	3	7	0.000000	0.000000
-4	-1	1	4	7	-0.000042	0.000030
-4	-1	1	5	7	-0.002302	0.000110
-4	-1	1	6	7	-0.002835	-0.000047
-4	-1	1	7	7	0.008623	0.000000
-4	-1	1	8	7	0.002761	0.000144
-4	-1	1	1	8	0.000026	-0.000056
-4	-1	1	2	8	0.000002	0.000011
-4	-1	1	3	8	0.000042	-0.000030
-4	-1	1	4	8	0.000000	0.000000
-4	-1	1	5	8	-0.004745	-0.000031
-4	-1	1	6	8	-0.002430	-0.000008
-4	-1	1	7	8	0.002761	-0.000144
-4	-1	1	8	8	-0.001470	0.000000
-4	-1	2	1	1	-0.001406	0.000000
-4	-1	2	2	1	-0.002739	-0.000006
-4	-1	2	3	1	-0.000012	-0.000022
-4	-1	2	4	1	0.001067	0.000027
-4	-1	2	5	1	0.000000	0.000000
-4	-1	2	6	1	-0.000011	-0.000023
-4	-1	2	7	1	0.000096	0.000013
-4	-1	2	8	1	-0.000016	-0.000036
-4	-1	2	1	2	0.002739	-0.000006
-4	-1	2	2	2	0.000844	0.000000
-4	-1	2	3	2	-0.001409	-0.000007
-4	-1	2	4	2	-0.001755	-0.000068
-4	-1	2	5	2	-0.000011	-0.000023
-4	-1	2	6	2	0.000000	0.000000
-4	-1	2	7	2	0.000084	-0.000014
-4	-1	2	8	2	0.000008	-0.000015
-4	-1	2	1	3	0.000012	-0.000022
-4	-1	2	2	3	-0.001409	0.000007
-4	-1	2	3	3	0.001302	0.000000
-4	-1	2	4	3	0.000379	-0.000100
-4	-1	2	5	3	0.000096	0.000013
-4	-1	2	6	3	-0.000084	0.000014
-4	-1	2	7	3	0.000000	0.000000
-4	-1	2	8	3	-0.000016	0.000039
-4	-1	2	1	4	-0.001067	0.000027
-4	-1	2	2	4	-0.001755	0.000068
-4	-1	2	3	4	0.000379	0.000100
-4	-1	2	4	4	-0.000353	0.000000
-4	-1	2	5	4	-0.000016	-0.000036
-4	-1	2	6	4	-0.000008	0.000015
-4	-1	2	7	4	0.000016	-0.000039
-4	-1	2	8	4	0.000000	0.000000
-4	-1	2	1	5	0.000000	0.000000
-4	-1	2	2	5	0.000011	-0.000023
-4	-1	2	3	5	-0.000096	0.000013
-4	-1	2	4	5	0.000016	-0.000036
-4	-1	2	5	5	-0.001406	0.000000
-4	-1	2	6	5	-0.002739	0.000006
-4	-1	2	7	5	-0.000012	0.000022
-4	-1	2	8	5	0.001067	-0.000027
-4	-1	2	1	6	0.000011	-0.000023
-4	-1	2	2	6	0.000000	0.000000
-4	-1	2	3	6	-0.000084	-0.000014
-4	-1	2	4	6	-0.000008	-0.000015
-4	-1	2	5	6	0.002739	0.000006
-4	-1	2	6	6	0.000844	0.000000
-4	-1	2	7	6	-0.001409	0.000007
-4	-1	2	8	6	-0.001755	0.000068
-4	-1	2	1	7	-0.000096	0.000013
-4	-1	2	2	7	0.000084	0.000014
-4	-1	2	3	7	0.000000	0.000000
-4	-1	2	4	7	0.000016	0.000039
-4	-1	2	5	7	0.000012	0.000022
-4	-1	2	6	7	-0.001409	-0.000007
-4	-1	2	7	7	0.001302	0.000000
-4	-1	2	8	7	0.000379	0.000100
-4	-1	2	1	8	0.000016	-0.000036
-4	-1	2	2	8	0.000008	0.000015
-4	-1	2	3	8	-0.000016	-0.000039
-4	-1	2	4	8	0.000000	0.000000
-4	-1	2	5	8	-0.001067	-0.000027
-4	-1	2	6	8	-0.001755	-0.000068
-4	-1	2	7	8	0.000379	-0.000100
-4	-1	2	8	8	-0.000353	0.000000
-4	-1	3	1	1	-0.001912	0.000000
-4	-1	3	2	1	-0.001020	-0.000020
-4	-1	3	3	1	0.000417	-0.000048
-4	-1	3	4	1	0.000954	0.000024
-4	-1	3	5	1	0.000000	0.000000
-4	-1	3	6	1	0.000020	0.000072
-4	-1	3	7	1	0.000034	0.000023
-4	-1	3	8	1	-0.000001	0.000006
-4	-1	3	1	2	0.001020	-0.000020
-4	-1	3	2	2	0.001104	0.000000
-4	-1	3	3	2	-0.000467	-0.000045
-4	-1	3	4	2	-0.000551	-0.000047
-4	-1	3	5	2	0.000020	0.000072
-4	-1	3	6	2	0.000000	0.000000
-4	-1	3	7	2	-0.000029	0.000015
-4	-1	3	8	2	0.000013	-0.000011
-4	-1	3	1	3	-0.000417	-0.000048
-4	-1	3	2	3	-0.000467	0.000045
-4	-1	3	3	3	0.001023	0.000000
-4	-1	3	4	3	0.000137	0.000000
-4	-1	3	5	3	0.000034	0.000023
-4	-1	3	6	3	0.000029	-0.000015
-4	-1	3	7	3	0.000000	0.000000
-4	-1	3	8	3	-0.000017	0.000054
-4	-1	3	1	4	-0.000954	0.000024
-4	-1	3	2	4	-0.000551	0.000047
-4	-1	3	3	4	0.000137	0.000000
-4	-1	3	4	4	-0.000243	0.000000
-4	-1	3	5	4	-0.000001	0.000006
-4	-1	3	6	4	-0.000013	0.000011
-4	-1	3	7	4	0.000017	-0.000054
-4	-1	3	8	4	0.000000	0.000000
-4	-1	3	1	5	0.000000	0.000000
-4	-1	3	2	5	-0.000020	0.000072
-4	-1	3	3	5	-0.000034	0.000023
-4	-1	3	4	5	0.000001	0.000006
-4	-1	3	5	5	-0.001912	0.000000
-4	-1	3	6	5	-0.001020	0.000020
-4	-1	3	7	5	0.000417	0.000048
-4	-1	3	8	5	0.000954	-0.000024
-4	-1	3	1	6	-0.000020	0.000072
-4	-1	3	2	6	0.000000	0.000000
-4	-1	3	3	6	0.000029	0.000015
-4	-1	3	4	6	-0.000013	-0.000011
-4	-1	3	5	6	0.001020	0.000020
-4	-1	3	6	6	0.001104	0.000000
-4	-1	3	7	6	-0.000467	0.000045
-4	-1	3	8	6	-0.000551	0.000047
-4	-1	3	1	7	-0.000034	0.000023
-4	-1	3	2	7	-0.000029	-0.000015
-4	-1	3	3	7	0.000000	0.000000
-4	-1	3	4	7	0.000017	0.000054
-4	-1	3	5	7	-0.000417	0.000048
-4	-1	3	6	7	-0.000467	-0.000045
-4	-1	3	7	7	0.001023	0.000000
-4	-1	3	8	7	0.000137	0.000000
-4	-1	3	1	8	0.000001	0.000006
-4	-1	3	2	8	0.000013	0.000011
-4	-1	3	3	8	-0.000017	-0.000054
-4	-1	3	4	8	0.000000	0.000000
-4	-1	3	5	8	-0.000954	-0.000024
-4	-1	3	6	8	-0.000551	-0.000047
-4	-1	3	7	8	0.000137	0.000000
-4	-1	3	8	8	-0.000243	0.000000
-4	-1	4	1	1	-0.001542	0.000000
-4	-1	4	2	1	-0.000400	-0.000011
-4	-1	4	3	1	0.000409	-0.000134
-4	-1	4	4	1	0.000813	0.000024
-4	-1	4	5	1	0.000000	0.000000
-4	-1	4	6	1	0.000044	0.000125
-4	-1	4	7	1	0.000042	0.000009
-4	-1	4	8	1	-0.000007	0.000017
-4	-1	4	1	2	0.000400	-0.000011
-4	-1	4	2	2	0.001094	0.000000
-4	-1	4	3	2	-0.000282	-0.000012
-4	-1	4	4	2	-0.000166	-0.000021
-4	-1	4	5	2	0.000044	0.000125
-4	-1	4	6	2	0.000000	0.000000
-4	-1	4	7	2	-0.000127	0.000029
-4	-1	4	8	2	-0.000009	-0.000020
-4	-1	4	1	3	-0.000409	-0.000134
-4	-1	4	2	3	-0.000282	0.000012
-4	-1	4	3	3	0.001056	0.000000
-4	-1	4	4	3	0.000159	0.000009
-4	-1	4	5	3	0.000042	0.000009
-4	-1	4	6	3	0.000127	-0.000029
-4	-1	4	7	3	0.000000	0.000000
-4	-1	4	8	3	-0.000005	0.000019
-4	-1	4	1	4	-0.000813	0.000024
-4	-1	4	2	4	-0.000166	0.000021
-4	-1	4	3	4	0.000159	-0.000009
-4	-1	4	4	4	-0.000285	0.000000
-4	-1	4	5	4	-0.000007	0.000017
-4	-1	4	6	4	0.000009	0.000020
-4	-1	4	7	4	0.000005	-0.000019
-4	-1	4	8	4	0.000000	0.000000
-4	-1	4	1	5	0.000000	0.000000
-4	-1	4	2	5	-0.000044	0.000125
-4	-1	4	3	5	-0.000042	0.000009
-4	-1	4	4	5	0.000007	0.000017
-4	-1	4	5	5	-0.001542	0.000000
-4	-1	4	6	5	-0.000400	0.000011
-4	-1	4	7	5	0.000409	0.000134
-4	-1	4	8	5	0.000813	-0.000024
-4	-1	4	1	6	-0.000044	0.000125
-4	-1	4	2	6	0.000000	0.000000
-4	-1	4	3	6	0.000127	0.000029
-4	-1	4	4	6	0.000009	-0.000020
-4	-1	4	5	6	0.000400	0.000011
-4	-1	4	6	6	0.001094	0.000000
-4	-1	4	7	6	-0.000282	0.000012
-4	-1	4	8	6	-0.000166	0.000021
-4	-1	4	1	7	-0.000042	0.000009
-4	-1	4	2	7	-0.000127	-0.000029
-4	-1	4	3	7	0.000000	0.000000
-4	-1	4	4	7	0.000005	0.000019
-4	-1	4	5	7	-0.000409	0.000134
-4	-1	4	6	7	-0.000282	-0.000012
-4	-1	4	7	7	0.001056	0.000000
-4	-1	4	8	7	0.000159	-0.000009
-4	-1	4	1	8	0.000007	0.000017
-4	-1	4	2	8	-0.000009	0.000020
-4	-1	4	3	8	-0.000005	-0.000019
-4	-1	4	4	8	0.000000	0.000000
-4	-1	4	5	8	-0.000813	-0.000024
-4	-1	4	6	8	-0.000166	-0.000021
-4	-1	4	7	8	0.000159	0.000009
-4	-1	4	8	8	-0.000285	0.000000
-4	0	-4	1	1	-0.002743	0.000000
-4	0	-4	2	1	0.000620	-0.000003
-4	0	-4	3	1	0.000625	0.000008
-4	0	-4	4	1	0.000032	0.000013
-4	0	-4	5	1	0.000000	0.000000
-4	0	-4	6	1	0.000041	-0.000008
-4	0	-4	7	1	-0.000040	0.000003
-4	0	-4	8	1	0.000001	-0.000013
-4	0	-4	1	2	-0.000620	-0.000003
-4	0	-4	2	2	0.001444	0.000000
-4	0	-4	3	2	0.000047	-0.000001
-4	0	-4	4	2	0.000043	0.000008
-4	0	-4	5	2	0.000041	-0.000008
-4	0	-4	6	2	0.000000	0.000000
-4	0	-4	7	2	-0.000194	0.000001
-4	0	-4	8	2	0.000000	0.000003
-4	0	-4	1	3	-0.000625	0.000008
-4	0	-4	2	3	0.000047	0.000001
-4	0	-4	3	3	0.001444	0.000000
-4	0	-4	4	3	0.000001	-0.000003
-4	0	-4	5	3	-0.000040	0.000003
-4	0	-4	6	3	0.000194	-0.000001
-4	0	-4	7	3	0.000000	0.000000
-4	0	-4	8	3	0.000003	-0.000007
-4	0	-4	1	4	-0.000032	0.000013
-4	0	-4	2	4	0.000043	-0.000008
-4	0	-4	3	4	0.000001	0.000003
-4	0	-4	4	4	-0.000568	0.000000
-4	0	-4	5	4	0.000001	-0.000013
-4	0	-4	6	4	0.000000	-0.000003
-4	0	-4	7	4	-0.000003	0.000007
-4	0	-4	8	4	0.000000	0.000000
-4	0	-4	1	5	0.000000	0.000000
-4	0	-4	2	5	-0.000041	-0.000008
-4	0	-4	3	5	0.000040	0.000003
-4	0	-4	4	5	-0.000001	-0.000013
-4	0	-4	5	5	-0.002743	0.000000
-4	0	-4	6	5	0.000620	0.000003
-4	0	-4	7	5	0.000625	-0.000008
-4	0	-4	8	5	0.000032	-0.000013
-4	0	-4	1	6	-0.000041	-0.000008
-4	0	-4	2	6	0.000000	0.000000
-4	0	-4	3	6	0.000194	0.000001
-4	0	-4	4	6	0.000000	0.000003
-4	0	-4	5	6	-0.000620	0.000003
-4	0	-4	6	6	0.001444	0.000000
-4	0	-4	7	6	0.000047	0.000001
-4	0	-4	8	6	0.000043	-0.000008
-4	0	-4	1	7	0.000040	0.000003
-4	0	-4	2	7	-0.000194	-0.000001
-4	0	-4	3	7	0.000000	0.000000
-4	0	-4	4	7	-0.000003	-0.000007
-4	0	-4	5	7	-0.000625	-0.000008
-4	0	-4	6	7	0.000047	-0.000001
-4	0	-4	7	7	0.001444	0.000000
-4	0	-4	8	7	0.000001	0.000003
-4	0	-4	1	8	-0.000001	-0.000013
-4	0	-4	2	8	0.000000	-0.000003
-4	0	-4	3	8	0.000003	0.000007
-4	0	-4	4	8	0.000000	0.000000
-4	0	-4	5	8	-0.000032	-0.000013
-4	0	-4	6	8	0.000043	0.000008
-4	0	-4	7	8	0.000001	-0.000003
-4	0	-4	8	8	-0.000568	0.000000
-4	0	-3	1	1	-0.003676	0.000000
-4	0	-3	2	1	0.002178	0.000000
-4	0	-3	3	1	0.001094	0.000006
-4	0	-3	4	1	0.000049	0.000021
-4	0	-3	5	1	0.000000	0.000000
-4	0	-3	6	1	0.000060	-0.000001
-4	0	-3	7	1	-0.000130	0.000005
-4	0	-3	8	1	0.000006	-0.000025
-4	0	-3	1	2	-0.002178	0.000000
-4	0	-3	2	2	0.001973	0.000000
-4	0	-3	3	2	0.000861	0.000004
-4	0	-3	4	2	0.000070	0.000054
-4	0	-3	5	2	0.000060	-0.000001
-4	0	-3	6	2	0.000000	0.000000
-4	0	-3	7	2	-0.000147	0.000001
-4	0	-3	8	2	-0.000004	-0.000002
-4	0	-3	1	3	-0.001094	0.000006
-4	0	-3	2	3	0.000861	-0.000004
-4	0	-3	3	3	0.002862	0.000000
-4	0	-3	4	3	-0.000009	0.000017
-4	0	-3	5	3	-0.000130	0.000005
-4	0	-3	6	3	0.000147	-0.000001
-4	0	-3	7	3	0.000000	0.000000
-4	0	-3	8	3	-0.000010	-0.000073
-4	0	-3	1	4	-0.000049	0.000021
-4	0	-3	2	4	0.000070	-0.000054
-4	0	-3	3	4	-0.000009	-0.000017
-4	0	-3	4	4	-0.000643	0.000000
-4	0	-3	5	4	0.000006	-0.000025
-4	0	-3	6	4	0.000004	0.000002
-4	0	-3	7	4	0.000010	0.000073
-4	0	-3	8	4	0.000000	0.000000
-4	0	-3	1	5	0.000000	0.000000
-4	0	-3	2	5	-0.000060	-0.000001
-4	0	-3	3	5	0.000130	0.000005
-4	0	-3	4	5	-0.000006	-0.000025
-4	0	-3	5	5	-0.003676	0.000000
-4	0	-3	6	5	0.002178	0.000000
-4	0	-3	7	5	0.001094	-0.000006
-4	0	-3	8	5	0.000049	-0.000021
-4	0	-3	1	6	-0.000060	-0.000001
-4	0	-3	2	6	0.000000	0.000000
-4	0	-3	3	6	0.000147	0.000001
-4	0	-3	4	6	0.000004	-0.000002
-4	0	-3	5	6	-0.002178	0.000000
-4	0	-3	6	6	0.001973	0.000000
-4	0	-3	7	6	0.000861	-0.000004
-4	0	-3	8	6	0.000070	-0.000054
-4	0	-3	1	7	0.000130	0.000005
-4	0	-3	2	7	-0.000147	-0.000001
-4	0	-3	3	7	0.000000	0.000000
-4	0	-3	4	7	0.000010	-0.000073
-4	0	-3	5	7	-0.001094	-0.000006
-4	0	-3	6	7	0.000861	0.000004
-4	0	-3	7	7	0.002862	0.000000
-4	0	-3	8	7	-0.000009	-0.000017
-4	0	-3	1	8	-0.000006	-0.000025
-4	0	-3	2	8	-0.000004	0.000002
-4	0	-3	3	8	-0.000010	0.000073
-4	0	-3	4	8	0.000000	0.000000
-4	0	-3	5	8	-0.000049	-0.000021
-4	0	-3	6	8	0.000070	0.000054
-4	0	-3	7	8	-0.000009	0.000017
-4	0	-3	8	8	-0.000643	0.000000
-4	0	-2	1	1	-0.004539	0.000000
-4	0	-2	2	1	0.006364	0.000005
-4	0	-2	3	1	0.000922	0.000001
-4	0	-2	4	1	-0.000030	0.000036
-4	0	-2	5	1	0.000000	0.000000
-4	0	-2	6	1	-0.000008	0.000001
-4	0	-2	7	1	-0.000299	-0.000002
-4	0	-2	8	1	0.000001	0.000032
-4	0	-2	1	2	-0.006364	0.000005
-4	0	-2	2	2	0.001877	0.000000
-4	0	-2	3	2	0.003185	0.000009
-4	0	-2	4	2	0.000068	0.000105
-4	0	-2	5	2	-0.000008	0.000001
-4	0	-2	6	2	0.000000	0.000000
-4	0	-2	7	2	-0.000055	0.000000
[...]
4	3	3	3	3	0.000179	0.000000
4	3	3	4	3	0.000011	0.000027
4	3	3	5	3	0.000003	0.000000
4	3	3	6	3	0.000028	-0.000018
4	3	3	7	3	0.000000	0.000000
4	3	3	8	3	-0.000054	0.000018
4	3	3	1	4	0.000202	-0.000023
4	3	3	2	4	-0.000021	0.000000
4	3	3	3	4	0.000011	-0.000027
4	3	3	4	4	0.000239	0.000000
4	3	3	5	4	-0.000005	0.000015
4	3	3	6	4	0.000000	0.000011
4	3	3	7	4	0.000054	-0.000018
4	3	3	8	4	0.000000	0.000000
4	3	3	1	5	0.000000	0.000000
4	3	3	2	5	0.000023	-0.000015
4	3	3	3	5	-0.000003	0.000000
4	3	3	4	5	0.000005	0.000015
4	3	3	5	5	-0.000713	0.000000
4	3	3	6	5	-0.000201	0.000005
4	3	3	7	5	-0.000116	-0.000003
4	3	3	8	5	-0.000202	0.000023
4	3	3	1	6	0.000023	-0.000015
4	3	3	2	6	0.000000	0.000000
4	3	3	3	6	0.000028	0.000018
4	3	3	4	6	0.000000	-0.000011
4	3	3	5	6	0.000201	0.000005
4	3	3	6	6	0.000244	0.000000
4	3	3	7	6	0.000011	-0.000054
4	3	3	8	6	-0.000021	0.000000
4	3	3	1	7	-0.000003	0.000000
4	3	3	2	7	-0.000028	-0.000018
4	3	3	3	7	0.000000	0.000000
4	3	3	4	7	0.000054	0.000018
4	3	3	5	7	0.000116	-0.000003
4	3	3	6	7	0.000011	0.000054
4	3	3	7	7	0.000179	0.000000
4	3	3	8	7	0.000011	-0.000027
4	3	3	1	8	0.000005	0.000015
4	3	3	2	8	0.000000	0.000011
4	3	3	3	8	-0.000054	-0.000018
4	3	3	4	8	0.000000	0.000000
4	3	3	5	8	0.000202	0.000023
4	3	3	6	8	-0.000021	0.000000
4	3	3	7	8	0.000011	0.000027
4	3	3	8	8	0.000239	0.000000
4	3	4	1	1	-0.000723	0.000000
4	3	4	2	1	-0.000003	0.000004
4	3	4	3	1	-0.000008	0.000060
4	3	4	4	1	-0.000423	0.000002
4	3	4	5	1	0.000000	0.000000
4	3	4	6	1	0.000000	-0.000059
4	3	4	7	1	-0.000001	-0.000004
4	3	4	8	1	0.000000	-0.000003
4	3	4	1	2	0.000003	0.000004
4	3	4	2	2	0.000252	0.000000
4	3	4	3	2	-0.000087	0.000020
4	3	4	4	2	-0.000069	-0.000009
4	3	4	5	2	0.000000	-0.000059
4	3	4	6	2	0.000000	0.000000
4	3	4	7	2	-0.000045	0.000021
4	3	4	8	2	0.000015	-0.000012
4	3	4	1	3	0.000008	0.000060
4	3	4	2	3	-0.000087	-0.000020
4	3	4	3	3	0.000247	0.000000
4	3	4	4	3	-0.000067	0.000012
4	3	4	5	3	-0.000001	-0.000004
4	3	4	6	3	0.000045	-0.000021
4	3	4	7	3	0.000000	0.000000
4	3	4	8	3	-0.000015	0.000009
4	3	4	1	4	0.000423	0.000002
4	3	4	2	4	-0.000069	0.000009
4	3	4	3	4	-0.000067	-0.000012
4	3	4	4	4	0.000262	0.000000
4	3	4	5	4	0.000000	-0.000003
4	3	4	6	4	-0.000015	0.000012
4	3	4	7	4	0.000015	-0.000009
4	3	4	8	4	0.000000	0.000000
4	3	4	1	5	0.000000	0.000000
4	3	4	2	5	0.000000	-0.000059
4	3	4	3	5	0.000001	-0.000004
4	3	4	4	5	0.000000	-0.000003
4	3	4	5	5	-0.000723	0.000000
4	3	4	6	5	-0.000003	-0.000004
4	3	4	7	5	-0.000008	-0.000060
4	3	4	8	5	-0.000423	-0.000002
4	3	4	1	6	0.000000	-0.000059
4	3	4	2	6	0.000000	0.000000
4	3	4	3	6	0.000045	0.000021
4	3	4	4	6	-0.000015	-0.000012
4	3	4	5	6	0.000003	-0.000004
4	3	4	6	6	0.000252	0.000000
4	3	4	7	6	-0.000087	-0.000020
4	3	4	8	6	-0.000069	0.000009
4	3	4	1	7	0.000001	-0.000004
4	3	4	2	7	-0.000045	-0.000021
4	3	4	3	7	0.000000	0.000000
4	3	4	4	7	0.000015	0.000009
4	3	4	5	7	0.000008	-0.000060
4	3	4	6	7	-0.000087	0.000020
4	3	4	7	7	0.000247	0.000000
4	3	4	8	7	-0.000067	-0.000012
4	3	4	1	8	0.000000	-0.000003
4	3	4	2	8	0.000015	0.000012
4	3	4	3	8	-0.000015	-0.000009
4	3	4	4	8	0.000000	0.000000
4	3	4	5	8	0.000423	-0.000002
4	3	4	6	8	-0.000069	-0.000009
4	3	4	7	8	-0.000067	0.000012
4	3	4	8	8	0.000262	0.000000
4	4	-4	1	1	-0.001166	0.000000
4	4	-4	2	1	0.000176	0.000000
4	4	-4	3	1	-0.000170	0.000020
4	4	-4	4	1	-0.000168	-0.000020
4	4	-4	5	1	0.000000	0.000000
4	4	-4	6	1	-0.000021	-0.000021
4	4	-4	7	1	-0.000019	-0.000005
4	4	-4	8	1	-0.000005	-0.000019
4	4	-4	1	2	-0.000176	0.000000
4	4	-4	2	2	0.000290	0.000000
4	4	-4	3	2	-0.000040	0.000001
4	4	-4	4	2	-0.000040	-0.000001
4	4	-4	5	2	-0.000021	-0.000021
4	4	-4	6	2	0.000000	0.000000
4	4	-4	7	2	0.000023	-0.000002
4	4	-4	8	2	-0.000002	0.000022
4	4	-4	1	3	0.000170	0.000020
4	4	-4	2	3	-0.000040	-0.000001
4	4	-4	3	3	0.000261	0.000000
4	4	-4	4	3	0.000030	-0.000026
4	4	-4	5	3	-0.000019	-0.000005
4	4	-4	6	3	-0.000023	0.000002
4	4	-4	7	3	0.000000	0.000000
4	4	-4	8	3	0.000003	-0.000003
4	4	-4	1	4	0.000168	-0.000020
4	4	-4	2	4	-0.000040	0.000001
4	4	-4	3	4	0.000030	0.000026
4	4	-4	4	4	0.000260	0.000000
4	4	-4	5	4	-0.000005	-0.000019
4	4	-4	6	4	0.000002	-0.000022
4	4	-4	7	4	-0.000003	0.000003
4	4	-4	8	4	0.000000	0.000000
4	4	-4	1	5	0.000000	0.000000
4	4	-4	2	5	0.000021	-0.000021
4	4	-4	3	5	0.000019	-0.000005
4	4	-4	4	5	0.000005	-0.000019
4	4	-4	5	5	-0.001166	0.000000
4	4	-4	6	5	0.000176	0.000000
4	4	-4	7	5	-0.000170	-0.000020
4	4	-4	8	5	-0.000168	0.000020
4	4	-4	1	6	0.000021	-0.000021
4	4	-4	2	6	0.000000	0.000000
4	4	-4	3	6	-0.000023	-0.000002
4	4	-4	4	6	0.000002	0.000022
4	4	-4	5	6	-0.000176	0.000000
4	4	-4	6	6	0.000290	0.000000
4	4	-4	7	6	-0.000040	-0.000001
4	4	-4	8	6	-0.000040	0.000001
4	4	-4	1	7	0.000019	-0.000005
4	4	-4	2	7	0.000023	0.000002
4	4	-4	3	7	0.000000	0.000000
4	4	-4	4	7	-0.000003	-0.000003
4	4	-4	5	7	0.000170	-0.000020
4	4	-4	6	7	-0.000040	0.000001
4	4	-4	7	7	0.000261	0.000000
4	4	-4	8	7	0.000030	0.000026
4	4	-4	1	8	0.000005	-0.000019
4	4	-4	2	8	-0.000002	-0.000022
4	4	-4	3	8	0.000003	0.000003
4	4	-4	4	8	0.000000	0.000000
4	4	-4	5	8	0.000168	0.000020
4	4	-4	6	8	-0.000040	-0.000001
4	4	-4	7	8	0.000030	-0.000026
4	4	-4	8	8	0.000260	0.000000
4	4	-3	1	1	-0.000735	0.000000
4	4	-3	2	1	0.000424	0.000000
4	4	-3	3	1	-0.000011	-0.000014
4	4	-3	4	1	-0.000011	0.000014
4	4	-3	5	1	0.000000	0.000000
4	4	-3	6	1	0.000002	0.000002
4	4	-3	7	1	-0.000063	-0.000005
4	4	-3	8	1	-0.000005	-0.000063
4	4	-3	1	2	-0.000424	0.000000
4	4	-3	2	2	0.000250	0.000000
4	4	-3	3	2	0.000043	-0.000014
4	4	-3	4	2	0.000042	0.000014
4	4	-3	5	2	0.000002	0.000002
4	4	-3	6	2	0.000000	0.000000
4	4	-3	7	2	-0.000007	0.000008
4	4	-3	8	2	0.000008	-0.000007
4	4	-3	1	3	0.000011	-0.000014
4	4	-3	2	3	0.000043	0.000014
4	4	-3	3	3	0.000197	0.000000
4	4	-3	4	3	-0.000073	0.000040
4	4	-3	5	3	-0.000063	-0.000005
4	4	-3	6	3	0.000007	-0.000008
4	4	-3	7	3	0.000000	0.000000
4	4	-3	8	3	0.000024	-0.000025
4	4	-3	1	4	0.000011	0.000014
4	4	-3	2	4	0.000042	-0.000014
4	4	-3	3	4	-0.000073	-0.000040
4	4	-3	4	4	0.000198	0.000000
4	4	-3	5	4	-0.000005	-0.000063
4	4	-3	6	4	-0.000008	0.000007
4	4	-3	7	4	-0.000024	0.000025
4	4	-3	8	4	0.000000	0.000000
4	4	-3	1	5	0.000000	0.000000
4	4	-3	2	5	-0.000002	0.000002
4	4	-3	3	5	0.000063	-0.000005
4	4	-3	4	5	0.000005	-0.000063
4	4	-3	5	5	-0.000735	0.000000
4	4	-3	6	5	0.000424	0.000000
4	4	-3	7	5	-0.000011	0.000014
4	4	-3	8	5	-0.000011	-0.000014
4	4	-3	1	6	-0.000002	0.000002
4	4	-3	2	6	0.000000	0.000000
4	4	-3	3	6	0.000007	0.000008
4	4	-3	4	6	-0.000008	-0.000007
4	4	-3	5	6	-0.000424	0.000000
4	4	-3	6	6	0.000250	0.000000
4	4	-3	7	6	0.000043	0.000014
4	4	-3	8	6	0.000042	-0.000014
4	4	-3	1	7	0.000063	-0.000005
4	4	-3	2	7	-0.000007	-0.000008
4	4	-3	3	7	0.000000	0.000000
4	4	-3	4	7	-0.000024	-0.000025
4	4	-3	5	7	0.000011	0.000014
4	4	-3	6	7	0.000043	-0.000014
4	4	-3	7	7	0.000197	0.000000
4	4	-3	8	7	-0.000073	-0.000040
4	4	-3	1	8	0.000005	-0.000063
4	4	-3	2	8	0.000008	0.000007
4	4	-3	3	8	0.000024	0.000025
4	4	-3	4	8	0.000000	0.000000
4	4	-3	5	8	0.000011	-0.000014
4	4	-3	6	8	0.000042	0.000014
4	4	-3	7	8	-0.000073	0.000040
4	4	-3	8	8	0.000198	0.000000
4	4	-2	1	1	-0.000617	0.000000
4	4	-2	2	1	0.000742	0.000000
4	4	-2	3	1	-0.000041	-0.000025
4	4	-2	4	1	-0.000041	0.000025
4	4	-2	5	1	0.000000	0.000000
4	4	-2	6	1	0.000012	0.000011
4	4	-2	7	1	-0.000127	0.000011
4	4	-2	8	1	0.000012	-0.000127
4	4	-2	1	2	-0.000742	0.000000
4	4	-2	2	2	0.000053	0.000000
4	4	-2	3	2	-0.000043	-0.000008
4	4	-2	4	2	-0.000043	0.000008
4	4	-2	5	2	0.000012	0.000011
4	4	-2	6	2	0.000000	0.000000
4	4	-2	7	2	-0.000017	-0.000011
4	4	-2	8	2	-0.000011	-0.000017
4	4	-2	1	3	0.000041	-0.000025
4	4	-2	2	3	-0.000043	0.000008
4	4	-2	3	3	0.000293	0.000000
4	4	-2	4	3	-0.000026	0.000086
4	4	-2	5	3	-0.000127	0.000011
4	4	-2	6	3	0.000017	0.000011
4	4	-2	7	3	0.000000	0.000000
4	4	-2	8	3	0.000035	-0.000036
4	4	-2	1	4	0.000041	0.000025
4	4	-2	2	4	-0.000043	-0.000008
4	4	-2	3	4	-0.000026	-0.000086
4	4	-2	4	4	0.000293	0.000000
4	4	-2	5	4	0.000012	-0.000127
4	4	-2	6	4	0.000011	0.000017
4	4	-2	7	4	-0.000035	0.000036
4	4	-2	8	4	0.000000	0.000000
4	4	-2	1	5	0.000000	0.000000
4	4	-2	2	5	-0.000012	0.000011
4	4	-2	3	5	0.000127	0.000011
4	4	-2	4	5	-0.000012	-0.000127
4	4	-2	5	5	-0.000617	0.000000
4	4	-2	6	5	0.000742	0.000000
4	4	-2	7	5	-0.000041	0.000025
4	4	-2	8	5	-0.000041	-0.000025
4	4	-2	1	6	-0.000012	0.000011
4	4	-2	2	6	0.000000	0.000000
4	4	-2	3	6	0.000017	-0.000011
4	4	-2	4	6	0.000011	-0.000017
4	4	-2	5	6	-0.000742	0.000000
4	4	-2	6	6	0.000053	0.000000
4	4	-2	7	6	-0.000043	0.000008
4	4	-2	8	6	-0.000043	-0.000008
4	4	-2	1	7	0.000127	0.000011
4	4	-2	2	7	-0.000017	0.000011
4	4	-2	3	7	0.000000	0.000000
4	4	-2	4	7	-0.000035	-0.000036
4	4	-2	5	7	0.000041	0.000025
4	4	-2	6	7	-0.000043	-0.000008
4	4	-2	7	7	0.000293	0.000000
4	4	-2	8	7	-0.000026	-0.000086
4	4	-2	1	8	-0.000012	-0.000127
4	4	-2	2	8	-0.000011	0.000017
4	4	-2	3	8	0.000035	0.000036
4	4	-2	4	8	0.000000	0.000000
4	4	-2	5	8	0.000041	-0.000025
4	4	-2	6	8	-0.000043	0.000008
4	4	-2	7	8	-0.000026	0.000086
4	4	-2	8	8	0.000293	0.000000
4	4	-1	1	1	-0.001578	0.000000
4	4	-1	2	1	0.000809	0.000000
4	4	-1	3	1	-0.000344	0.000033
4	4	-1	4	1	-0.000341	-0.000034
4	4	-1	5	1	0.000000	0.000000
4	4	-1	6	1	-0.000004	-0.000004
4	4	-1	7	1	-0.000125	0.000004
4	4	-1	8	1	0.000004	-0.000125
4	4	-1	1	2	-0.000809	0.000000
4	4	-1	2	2	-0.000344	0.000000
4	4	-1	3	2	-0.000091	0.000006
4	4	-1	4	2	-0.000090	-0.000006
4	4	-1	5	2	-0.000004	-0.000004
4	4	-1	6	2	0.000000	0.000000
4	4	-1	7	2	0.000002	-0.000025
4	4	-1	8	2	-0.000025	0.000002
4	4	-1	1	3	0.000344	0.000033
4	4	-1	2	3	-0.000091	-0.000006
4	4	-1	3	3	0.000926	0.000000
4	4	-1	4	3	0.000234	0.000112
4	4	-1	5	3	-0.000125	0.000004
4	4	-1	6	3	-0.000002	0.000025
4	4	-1	7	3	0.000000	0.000000
4	4	-1	8	3	0.000013	-0.000013
4	4	-1	1	4	0.000341	-0.000034
4	4	-1	2	4	-0.000090	0.000006
4	4	-1	3	4	0.000234	-0.000112
4	4	-1	4	4	0.000921	0.000000
4	4	-1	5	4	0.000004	-0.000125
4	4	-1	6	4	0.000025	-0.000002
4	4	-1	7	4	-0.000013	0.000013
4	4	-1	8	4	0.000000	0.000000
4	4	-1	1	5	0.000000	0.000000
4	4	-1	2	5	0.000004	-0.000004
4	4	-1	3	5	0.000125	0.000004
4	4	-1	4	5	-0.000004	-0.000125
4	4	-1	5	5	-0.001578	0.000000
4	4	-1	6	5	0.000809	0.000000
4	4	-1	7	5	-0.000344	-0.000033
4	4	-1	8	5	-0.000341	0.000034
4	4	-1	1	6	0.000004	-0.000004
4	4	-1	2	6	0.000000	0.000000
4	4	-1	3	6	-0.000002	-0.000025
4	4	-1	4	6	0.000025	0.000002
4	4	-1	5	6	-0.000809	0.000000
4	4	-1	6	6	-0.000344	0.000000
4	4	-1	7	6	-0.000091	-0.000006
4	4	-1	8	6	-0.000090	0.000006
4	4	-1	1	7	0.000125	0.000004
4	4	-1	2	7	0.000002	0.000025
4	4	-1	3	7	0.000000	0.000000
4	4	-1	4	7	-0.000013	-0.000013
4	4	-1	5	7	0.000344	-0.000033
4	4	-1	6	7	-0.000091	0.000006
4	4	-1	7	7	0.000926	0.000000
4	4	-1	8	7	0.000234	-0.000112
4	4	-1	1	8	-0.000004	-0.000125
4	4	-1	2	8	-0.000025	-0.000002
4	4	-1	3	8	0.000013	0.000013
4	4	-1	4	8	0.000000	0.000000
4	4	-1	5	8	0.000341	0.000034
4	4	-1	6	8	-0.000090	-0.000006
4	4	-1	7	8	0.000234	0.000112
4	4	-1	8	8	0.000921	0.000000
4	4	0	1	1	-0.002745	0.000000
4	4	0	2	1	-0.000025	0.000000
4	4	0	3	1	-0.000626	0.000040
4	4	0	4	1	-0.000620	-0.000041
4	4	0	5	1	0.000000	0.000000
4	4	0	6	1	-0.000013	-0.000013
4	4	0	7	1	-0.000008	0.000003
4	4	0	8	1	0.000003	-0.000008
4	4	0	1	2	0.000025	0.000000
4	4	0	2	2	-0.000568	0.000000
4	4	0	3	2	0.000000	0.000000
4	4	0	4	2	0.000001	0.000000
4	4	0	5	2	-0.000013	-0.000013
4	4	0	6	2	0.000000	0.000000
4	4	0	7	2	0.000003	-0.000007
4	4	0	8	2	-0.000008	0.000003
4	4	0	1	3	0.000626	0.000040
4	4	0	2	3	0.000000	0.000000
4	4	0	3	3	0.001445	0.000000
4	4	0	4	3	0.000047	0.000194
4	4	0	5	3	-0.000008	0.000003
4	4	0	6	3	-0.000003	0.000007
4	4	0	7	3	0.000000	0.000000
4	4	0	8	3	-0.000001	0.000001
4	4	0	1	4	0.000620	-0.000041
4	4	0	2	4	0.000001	0.000000
4	4	0	3	4	0.000047	-0.000194
4	4	0	4	4	0.001445	0.000000
4	4	0	5	4	0.000003	-0.000008
4	4	0	6	4	0.000008	-0.000003
4	4	0	7	4	0.000001	-0.000001
4	4	0	8	4	0.000000	0.000000
4	4	0	1	5	0.000000	0.000000
4	4	0	2	5	0.000013	-0.000013
4	4	0	3	5	0.000008	0.000003
4	4	0	4	5	-0.000003	-0.000008
4	4	0	5	5	-0.002745	0.000000
4	4	0	6	5	-0.000025	0.000000
4	4	0	7	5	-0.000626	-0.000040
4	4	0	8	5	-0.000620	0.000041
4	4	0	1	6	0.000013	-0.000013
4	4	0	2	6	0.000000	0.000000
4	4	0	3	6	-0.000003	-0.000007
4	4	0	4	6	0.000008	0.000003
4	4	0	5	6	0.000025	0.000000
4	4	0	6	6	-0.000568	0.000000
4	4	0	7	6	0.000000	0.000000
4	4	0	8	6	0.000001	0.000000
4	4	0	1	7	0.000008	0.000003
4	4	0	2	7	0.000003	0.000007
4	4	0	3	7	0.000000	0.000000
4	4	0	4	7	0.000001	0.000001
4	4	0	5	7	0.000626	-0.000040
4	4	0	6	7	0.000000	0.000000
4	4	0	7	7	0.001445	0.000000
4	4	0	8	7	0.000047	-0.000194
4	4	0	1	8	-0.000003	-0.000008
4	4	0	2	8	-0.000008	-0.000003
4	4	0	3	8	-0.000001	-0.000001
4	4	0	4	8	0.000000	0.000000
4	4	0	5	8	0.000620	0.000041
4	4	0	6	8	0.000001	0.000000
4	4	0	7	8	0.000047	0.000194
4	4	0	8	8	0.001445	0.000000
4	4	1	1	1	-0.001550	0.000000
4	4	1	2	1	-0.000868	0.000000
4	4	1	3	1	-0.000363	0.000039
4	4	1	4	1	-0.000359	-0.000040
4	4	1	5	1	0.000000	0.000000
4	4	1	6	1	-0.000006	-0.000006
4	4	1	7	1	0.000127	-0.000004
4	4	1	8	1	-0.000004	0.000127
4	4	1	1	2	0.000868	0.000000
4	4	1	2	2	-0.000302	0.000000
4	4	1	3	2	0.000141	-0.000009
4	4	1	4	2	0.000140	0.000009
4	4	1	5	2	-0.000006	-0.000006
4	4	1	6	2	0.000000	0.000000
4	4	1	7	2	-0.000009	-0.000024
4	4	1	8	2	-0.000024	-0.000009
4	4	1	1	3	0.000363	0.000039
4	4	1	2	3	0.000141	0.000009
4	4	1	3	3	0.001019	0.000000
4	4	1	4	3	0.000154	0.000127
4	4	1	5	3	0.000127	-0.000004
4	4	1	6	3	0.000009	0.000024
4	4	1	7	3	0.000000	0.000000
4	4	1	8	3	-0.000033	0.000034
4	4	1	1	4	0.000359	-0.000040
4	4	1	2	4	0.000140	-0.000009
4	4	1	3	4	0.000154	-0.000127
4	4	1	4	4	0.001015	0.000000
4	4	1	5	4	-0.000004	0.000127
4	4	1	6	4	0.000024	0.000009
4	4	1	7	4	0.000033	-0.000034
4	4	1	8	4	0.000000	0.000000
4	4	1	1	5	0.000000	0.000000
4	4	1	2	5	0.000006	-0.000006
4	4	1	3	5	-0.000127	-0.000004
4	4	1	4	5	0.000004	0.000127
4	4	1	5	5	-0.001550	0.000000
4	4	1	6	5	-0.000868	0.000000
4	4	1	7	5	-0.000363	-0.000039
4	4	1	8	5	-0.000359	0.000040
4	4	1	1	6	0.000006	-0.000006
4	4	1	2	6	0.000000	0.000000
4	4	1	3	6	0.000009	-0.000024
4	4	1	4	6	0.000024	-0.000009
4	4	1	5	6	0.000868	0.000000
4	4	1	6	6	-0.000302	0.000000
4	4	1	7	6	0.000141	0.000009
4	4	1	8	6	0.000140	-0.000009
4	4	1	1	7	-0.000127	-0.000004
4	4	1	2	7	-0.000009	0.000024
4	4	1	3	7	0.000000	0.000000
4	4	1	4	7	0.000033	0.000034
4	4	1	5	7	0.000363	-0.000039
4	4	1	6	7	0.000141	-0.000009
4	4	1	7	7	0.001019	0.000000
4	4	1	8	7	0.000154	-0.000127
4	4	1	1	8	0.000004	0.000127
4	4	1	2	8	-0.000024	0.000009
4	4	1	3	8	-0.000033	-0.000034
4	4	1	4	8	0.000000	0.000000
4	4	1	5	8	0.000359	0.000040
4	4	1	6	8	0.000140	0.000009
4	4	1	7	8	0.000154	0.000127
4	4	1	8	8	0.001015	0.000000
4	4	2	1	1	-0.000604	0.000000
4	4	2	2	1	-0.000768	0.000000
4	4	2	3	1	-0.000041	-0.000014
4	4	2	4	1	-0.000040	0.000014
4	4	2	5	1	0.000000	0.000000
4	4	2	6	1	0.000006	0.000006
4	4	2	7	1	0.000128	-0.000011
4	4	2	8	1	-0.000012	0.000128
4	4	2	1	2	0.000768	0.000000
4	4	2	2	2	0.000093	0.000000
4	4	2	3	2	0.000051	0.000007
4	4	2	4	2	0.000051	-0.000007
4	4	2	5	2	0.000006	0.000006
4	4	2	6	2	0.000000	0.000000
4	4	2	7	2	-0.000027	-0.000007
4	4	2	8	2	-0.000008	-0.000027
4	4	2	1	3	0.000041	-0.000014
4	4	2	2	3	0.000051	-0.000007
4	4	2	3	3	0.000267	0.000000
4	4	2	4	3	-0.000010	0.000075
4	4	2	5	3	0.000128	-0.000011
4	4	2	6	3	0.000027	0.000007
4	4	2	7	3	0.000000	0.000000
4	4	2	8	3	-0.000032	0.000033
4	4	2	1	4	0.000040	0.000014
4	4	2	2	4	0.000051	0.000007
4	4	2	3	4	-0.000010	-0.000075
4	4	2	4	4	0.000267	0.000000
4	4	2	5	4	-0.000012	0.000128
4	4	2	6	4	0.000008	0.000027
4	4	2	7	4	0.000032	-0.000033
4	4	2	8	4	0.000000	0.000000
4	4	2	1	5	0.000000	0.000000
4	4	2	2	5	-0.000006	0.000006
4	4	2	3	5	-0.000128	-0.000011
4	4	2	4	5	0.000012	0.000128
4	4	2	5	5	-0.000604	0.000000
4	4	2	6	5	-0.000768	0.000000
4	4	2	7	5	-0.000041	0.000014
4	4	2	8	5	-0.000040	-0.000014
4	4	2	1	6	-0.000006	0.000006
4	4	2	2	6	0.000000	0.000000
4	4	2	3	6	0.000027	-0.000007
4	4	2	4	6	0.000008	-0.000027
4	4	2	5	6	0.000768	0.000000
4	4	2	6	6	0.000093	0.000000
4	4	2	7	6	0.000051	-0.000007
4	4	2	8	6	0.000051	0.000007
4	4	2	1	7	-0.000128	-0.000011
4	4	2	2	7	-0.000027	0.000007
4	4	2	3	7	0.000000	0.000000
4	4	2	4	7	0.000032	0.000033
4	4	2	5	7	0.000041	0.000014
4	4	2	6	7	0.000051	0.000007
4	4	2	7	7	0.000267	0.000000
4	4	2	8	7	-0.000010	-0.000075
4	4	2	1	8	0.000012	0.000128
4	4	2	2	8	-0.000008	0.000027
4	4	2	3	8	-0.000032	-0.000033
4	4	2	4	8	0.000000	0.000000
4	4	2	5	8	0.000040	-0.000014
4	4	2	6	8	0.000051	-0.000007
4	4	2	7	8	-0.000010	0.000075
4	4	2	8	8	0.000267	0.000000
4	4	3	1	1	-0.000722	0.000000
4	4	3	2	1	-0.000423	0.000000
4	4	3	3	1	-0.000008	0.000000
4	4	3	4	1	-0.000008	0.000000
4	4	3	5	1	0.000000	0.000000
4	4	3	6	1	0.000002	0.000002
4	4	3	7	1	0.000060	0.000004
4	4	3	8	1	0.000004	0.000059
4	4	3	1	2	0.000423	0.000000
4	4	3	2	2	0.000264	0.000000
4	4	3	3	2	-0.000066	0.000015
4	4	3	4	2	-0.000065	-0.000015
4	4	3	5	2	0.000002	0.000002
4	4	3	6	2	0.000000	0.000000
4	4	3	7	2	-0.000012	0.000009
4	4	3	8	2	0.000009	-0.000012
4	4	3	1	3	0.000008	0.000000
4	4	3	2	3	-0.000066	-0.000015
4	4	3	3	3	0.000247	0.000000
4	4	3	4	3	-0.000088	0.000044
4	4	3	5	3	0.000060	0.000004
4	4	3	6	3	0.000012	-0.000009
4	4	3	7	3	0.000000	0.000000
4	4	3	8	3	-0.000021	0.000021
4	4	3	1	4	0.000008	0.000000
4	4	3	2	4	-0.000065	0.000015
4	4	3	3	4	-0.000088	-0.000044
4	4	3	4	4	0.000249	0.000000
4	4	3	5	4	0.000004	0.000059
4	4	3	6	4	-0.000009	0.000012
4	4	3	7	4	0.000021	-0.000021
4	4	3	8	4	0.000000	0.000000
4	4	3	1	5	0.000000	0.000000
4	4	3	2	5	-0.000002	0.000002
4	4	3	3	5	-0.000060	0.000004
4	4	3	4	5	-0.000004	0.000059
4	4	3	5	5	-0.000722	0.000000
4	4	3	6	5	-0.000423	0.000000
4	4	3	7	5	-0.000008	0.000000
4	4	3	8	5	-0.000008	0.000000
4	4	3	1	6	-0.000002	0.000002
4	4	3	2	6	0.000000	0.000000
4	4	3	3	6	0.000012	0.000009
4	4	3	4	6	-0.000009	-0.000012
4	4	3	5	6	0.000423	0.000000
4	4	3	6	6	0.000264	0.000000
4	4	3	7	6	-0.000066	-0.000015
4	4	3	8	6	-0.000065	0.000015
4	4	3	1	7	-0.000060	0.000004
4	4	3	2	7	-0.000012	-0.000009
4	4	3	3	7	0.000000	0.000000
4	4	3	4	7	0.000021	0.000021
4	4	3	5	7	0.000008	0.000000
4	4	3	6	7	-0.000066	0.000015
4	4	3	7	7	0.000247	0.000000
4	4	3	8	7	-0.000088	-0.000044
4	4	3	1	8	-0.000004	0.000059
4	4	3	2	8	0.000009	0.000012
4	4	3	3	8	-0.000021	-0.000021
4	4	3	4	8	0.000000	0.000000
4	4	3	5	8	0.000008	0.000000
4	4	3	6	8	-0.000065	-0.000015
4	4	3	7	8	-0.000088	0.000044
4	4	3	8	8	0.000249	0.000000
4	4	4	1	1	-0.001167	0.000000
4	4	4	2	1	-0.000141	0.000000
4	4	4	3	1	-0.000145	0.000020
4	4	4	4	1	-0.000143	-0.000020
4	4	4	5	1	0.000000	0.000000
4	4	4	6	1	-0.000020	-0.000020
4	4	4	7	1	0.000020	0.000000
4	4	4	8	1	0.000000	0.000020
4	4	4	1	2	0.000141	0.000000
4	4	4	2	2	0.000280	0.000000
4	4	4	3	2	0.000002	-0.000003
4	4	4	4	2	0.000002	0.000003
4	4	4	5	2	-0.000020	-0.000020
4	4	4	6	2	0.000000	0.000000
4	4	4	7	2	0.000024	-0.000003
4	4	4	8	2	-0.000003	0.000024
4	4	4	1	3	0.000145	0.000020
4	4	4	2	3	0.000002	0.000003
4	4	4	3	3	0.000280	0.000000
4	4	4	4	3	0.000002	-0.000024
4	4	4	5	3	0.000020	0.000000
4	4	4	6	3	-0.000024	0.000003
4	4	4	7	3	0.000000	0.000000
4	4	4	8	3	0.000003	-0.000003
4	4	4	1	4	0.000143	-0.000020
4	4	4	2	4	0.000002	-0.000003
4	4	4	3	4	0.000002	0.000024
4	4	4	4	4	0.000280	0.000000
4	4	4	5	4	0.000000	0.000020
4	4	4	6	4	0.000003	-0.000024
4	4	4	7	4	-0.000003	0.000003
4	4	4	8	4	0.000000	0.000000
4	4	4	1	5	0.000000	0.000000
4	4	4	2	5	0.000020	-0.000020
4	4	4	3	5	-0.000020	0.000000
4	4	4	4	5	0.000000	0.000020
4	4	4	5	5	-0.001167	0.000000
4	4	4	6	5	-0.000141	0.000000
4	4	4	7	5	-0.000145	-0.000020
4	4	4	8	5	-0.000143	0.000020
4	4	4	1	6	0.000020	-0.000020
4	4	4	2	6	0.000000	0.000000
4	4	4	3	6	-0.000024	-0.000003
4	4	4	4	6	0.000003	0.000024
4	4	4	5	6	0.000141	0.000000
4	4	4	6	6	0.000280	0.000000
4	4	4	7	6	0.000002	0.000003
4	4	4	8	6	0.000002	-0.000003
4	4	4	1	7	-0.000020	0.000000
4	4	4	2	7	0.000024	0.000003
4	4	4	3	7	0.000000	0.000000
4	4	4	4	7	-0.000003	-0.000003
4	4	4	5	7	0.000145	-0.000020
4	4	4	6	7	0.000002	-0.000003
4	4	4	7	7	0.000280	0.000000
4	4	4	8	7	0.000002	0.000024
4	4	4	1	8	0.000000	0.000020
4	4	4	2	8	-0.000003	-0.000024
4	4	4	3	8	0.000003	0.000003
4	4	4	4	8	0.000000	0.000000
4	4	4	5	8	0.000143	0.000020
4	4	4	6	8	0.000002	0.000003
4	4	4	7	8	0.000002	-0.000024
4	4	4	8	8	0.000280	0.000000
