       #
       # Generated by the Wannier90 code http://www.wannier.org
       # On  1Apr2018 at 06:58:10 
       #
CRYSTAL
PRIMVEC
   3.0715001   0.0000000   0.0000000
   0.0300198   3.0713534   0.0000000
   0.0300198   0.0297278   3.0712095
CONVVEC
   3.0715001   0.0000000   0.0000000
   0.0300198   3.0713534   0.0000000
   0.0300198   0.0297278   3.0712095
PRIMCOORD
     1  1
Sn      0.0000000   0.0000000   0.0000000


BEGIN_BLOCK_DATAGRID_3D
3D_field
BEGIN_DATAGRID_3D_UNKNOWN
    40    40    40
   -3.288117   -3.256135   -3.224770
   5.9894252   0.0000000   0.0000000
   0.0585386   5.9891391   0.0000000
   0.0585386   0.0579692   5.9888585
 -0.12312E-02 -0.39856E-03  0.39221E-03  0.58866E-03 -0.82301E-05 -0.12298E-02
 -0.28282E-02 -0.47232E-02 -0.70102E-02 -0.98073E-02 -0.13113E-01 -0.16780E-01
 -0.20601E-01 -0.24384E-01 -0.27932E-01 -0.31006E-01 -0.33451E-01 -0.35411E-01
 -0.37286E-01 -0.39266E-01 -0.40945E-01 -0.41581E-01 -0.40831E-01 -0.39134E-01
 -0.37255E-01 -0.35546E-01 -0.33749E-01 -0.31441E-01 -0.28492E-01 -0.25088E-01
 -0.21475E-01 -0.17836E-01 -0.14336E-01 -0.11170E-01 -0.84870E-02 -0.62872E-02
 -0.44358E-02 -0.28140E-02 -0.15016E-02 -0.78005E-03 -0.43200E-03  0.15115E-03
  0.82565E-03  0.10998E-02  0.73137E-03 -0.20194E-03 -0.15188E-02 -0.31547E-02
 -0.51889E-02 -0.77119E-02 -0.10687E-01 -0.13926E-01 -0.17181E-01 -0.20232E-01
 -0.22858E-01 -0.24804E-01 -0.25951E-01 -0.26572E-01 -0.27259E-01 -0.28365E-01
 -0.29534E-01 -0.29977E-01 -0.29322E-01 -0.28046E-01 -0.26965E-01 -0.26389E-01
 -0.25897E-01 -0.24868E-01 -0.23037E-01 -0.20548E-01 -0.17660E-01 -0.14580E-01
 -0.11504E-01 -0.86616E-02 -0.62384E-02 -0.42682E-02 -0.26503E-02 -0.12975E-02
 -0.28783E-03  0.16280E-03  0.32566E-03  0.79212E-03  0.14844E-02  0.19653E-02
  0.19324E-02  0.13517E-02  0.33279E-03 -0.10535E-02 -0.28298E-02 -0.50294E-02
 -0.75802E-02 -0.10276E-01 -0.12856E-01 -0.15088E-01 -0.16750E-01 -0.17607E-01
 -0.17597E-01 -0.17081E-01 -0.16751E-01 -0.17053E-01 -0.17691E-01 -0.17917E-01
 -0.17370E-01 -0.16521E-01 -0.16157E-01 -0.16533E-01 -0.17140E-01 -0.17251E-01
 -0.16504E-01 -0.14974E-01 -0.12896E-01 -0.10479E-01 -0.79369E-02 -0.55099E-02
 -0.33941E-02 -0.16565E-02 -0.26319E-03  0.79899E-03  0.14321E-02  0.14944E-02
  0.49438E-03  0.10376E-02  0.19361E-02  0.27808E-02  0.32028E-02  0.30604E-02
  0.23981E-02  0.13070E-02 -0.15823E-03 -0.19539E-02 -0.39713E-02 -0.60022E-02
 -0.77942E-02 -0.91202E-02 -0.97717E-02 -0.95509E-02 -0.84272E-02 -0.67683E-02
 -0.52718E-02 -0.44636E-02 -0.42499E-02 -0.41146E-02 -0.38078E-02 -0.37017E-02
 -0.43590E-02 -0.58382E-02 -0.75508E-02 -0.87584E-02 -0.90821E-02 -0.85529E-02
 -0.73659E-02 -0.57209E-02 -0.38297E-02 -0.19256E-02 -0.19949E-03  0.12480E-02
  0.23662E-02  0.30746E-02  0.32444E-02  0.28013E-02 -0.12229E-03  0.64754E-03
  0.18801E-02  0.31790E-02  0.41275E-02  0.45012E-02  0.42905E-02  0.36032E-02
  0.25682E-02  0.13052E-02 -0.43324E-04 -0.12791E-02 -0.21724E-02 -0.25134E-02
 -0.21162E-02 -0.81433E-03  0.14258E-02  0.43058E-02  0.71922E-02  0.94568E-02
  0.10851E-01  0.11476E-01  0.11388E-01  0.10404E-01  0.83691E-02  0.55625E-02
  0.26734E-02  0.37997E-03 -0.10012E-02 -0.14973E-02 -0.12698E-02 -0.49846E-03
  0.61702E-03  0.18641E-02  0.30655E-02  0.40906E-02  0.48099E-02  0.50600E-02
  0.46885E-02  0.36761E-02 -0.13561E-02 -0.30081E-03  0.12819E-02  0.30176E-02
  0.44816E-02  0.54066E-02  0.57434E-02  0.56032E-02  0.51621E-02  0.45923E-02
  0.40545E-02  0.37278E-02  0.38142E-02  0.45053E-02  0.59626E-02  0.83198E-02
  0.11616E-01  0.15640E-01  0.19848E-01  0.23526E-01  0.26075E-01  0.27163E-01
  0.26652E-01  0.24564E-01  0.21183E-01  0.17125E-01  0.13157E-01  0.98601E-02
  0.74671E-02  0.59478E-02  0.51775E-02  0.50018E-02  0.52358E-02  0.56882E-02
  0.61976E-02  0.66175E-02  0.67701E-02  0.64468E-02  0.54918E-02  0.39255E-02
 -0.29612E-02 -0.16278E-02  0.24978E-03  0.23401E-02  0.42548E-02  0.57270E-02
  0.66871E-02  0.72343E-02  0.75525E-02  0.78261E-02  0.82113E-02  0.88664E-02
  0.99756E-02  0.11720E-01  0.14236E-01  0.17604E-01  0.21826E-01  0.26726E-01
  0.31837E-01  0.36427E-01  0.39708E-01  0.41076E-01  0.40279E-01  0.37483E-01
  0.33247E-01  0.28367E-01  0.23605E-01  0.19455E-01  0.16107E-01  0.13571E-01
  0.11783E-01  0.10618E-01  0.99025E-02  0.94538E-02  0.91200E-02  0.87555E-02
  0.81778E-02  0.71825E-02  0.56344E-02  0.35761E-02 -0.48591E-02 -0.32704E-02
 -0.11462E-02  0.12372E-02  0.35548E-02  0.55738E-02  0.72212E-02  0.85702E-02
  0.97738E-02  0.10992E-01  0.12363E-01  0.14036E-01  0.16193E-01  0.19008E-01
  0.22584E-01  0.26923E-01  0.31938E-01  0.37416E-01  0.42933E-01  0.47822E-01
  0.51304E-01  0.52740E-01  0.51863E-01  0.48883E-01  0.44405E-01  0.39200E-01
  0.33946E-01  0.29079E-01  0.24821E-01  0.21270E-01  0.18441E-01  0.16256E-01
  0.14551E-01  0.13141E-01  0.11868E-01  0.10594E-01  0.91630E-02  0.74178E-02
  0.52635E-02  0.27517E-02 -0.71459E-02 -0.53076E-02 -0.29283E-02 -0.23570E-03
  0.25111E-02  0.51235E-02  0.75299E-02  0.97643E-02  0.11925E-01  0.14134E-01
  0.16521E-01  0.19239E-01  0.22466E-01  0.26356E-01  0.30964E-01  0.36212E-01
  0.41915E-01  0.47791E-01  0.53428E-01  0.58253E-01  0.61623E-01  0.63009E-01
  0.62195E-01  0.59359E-01  0.55000E-01  0.49747E-01  0.44170E-01  0.38687E-01
  0.33583E-01  0.29047E-01  0.25175E-01  0.21941E-01  0.19209E-01  0.16801E-01
  0.14546E-01  0.12301E-01  0.99449E-02  0.73806E-02  0.45673E-02  0.15654E-02
 -0.99395E-02 -0.78297E-02 -0.51294E-02 -0.20346E-02  0.12437E-02  0.45486E-02
  0.77979E-02  0.10976E-01  0.14128E-01  0.17351E-01  0.20781E-01  0.24575E-01
  0.28882E-01  0.33804E-01  0.39345E-01  0.45378E-01  0.51666E-01  0.57875E-01
  0.63587E-01  0.68306E-01  0.71529E-01  0.72861E-01  0.72146E-01  0.69508E-01
  0.65313E-01  0.60047E-01  0.54202E-01  0.48200E-01  0.42372E-01  0.36958E-01
  0.32093E-01  0.27799E-01  0.24000E-01  0.20553E-01  0.17289E-01  0.14051E-01
  0.10728E-01  0.72751E-02  0.37070E-02  0.10552E-03 -0.13238E-01 -0.10800E-01
 -0.76776E-02 -0.40510E-02 -0.10515E-03  0.40095E-02  0.81810E-02  0.12345E-01
  0.16512E-01  0.20778E-01  0.25287E-01  0.30173E-01  0.35526E-01  0.41381E-01
  0.47703E-01  0.54361E-01  0.61106E-01  0.67582E-01  0.73364E-01  0.78012E-01
  0.81129E-01  0.82432E-01  0.81808E-01  0.79341E-01  0.75287E-01  0.70022E-01
  0.63979E-01  0.57581E-01  0.51185E-01  0.45043E-01  0.39293E-01  0.33983E-01
  0.29099E-01  0.24568E-01  0.20255E-01  0.15999E-01  0.11679E-01  0.72706E-02
  0.28374E-02 -0.15027E-02 -0.16897E-01 -0.14032E-01 -0.10368E-01 -0.60780E-02
 -0.13383E-02  0.36842E-02  0.88365E-02  0.14018E-01  0.19229E-01  0.24570E-01
  0.30172E-01  0.36118E-01  0.42429E-01  0.49090E-01  0.56049E-01  0.63168E-01
  0.70172E-01  0.76677E-01  0.82277E-01  0.86629E-01  0.89487E-01  0.90704E-01
  0.90223E-01  0.88082E-01  0.84409E-01  0.79424E-01  0.73445E-01  0.66862E-01
  0.60060E-01  0.53327E-01  0.46815E-01  0.40583E-01  0.34656E-01  0.29030E-01
  0.23632E-01  0.18320E-01  0.12968E-01  0.75472E-02  0.21513E-02 -0.30580E-02
 -0.20708E-01 -0.17279E-01 -0.12941E-01 -0.78644E-02 -0.22273E-02  0.37738E-02
  0.99479E-02  0.16176E-01  0.22456E-01  0.28877E-01  0.35525E-01  0.42429E-01
  0.49571E-01  0.56909E-01  0.64352E-01  0.71675E-01  0.78501E-01  0.84410E-01
  0.89101E-01  0.92479E-01  0.94598E-01  0.95546E-01  0.95363E-01  0.94013E-01
  0.91403E-01  0.87450E-01  0.82198E-01  0.75903E-01  0.68972E-01  0.61805E-01
  0.54653E-01  0.47625E-01  0.40766E-01  0.34104E-01  0.27622E-01  0.21224E-01
  0.14796E-01  0.83073E-02  0.18646E-02 -0.43314E-02 -0.24481E-01 -0.20321E-01
 -0.15166E-01 -0.91843E-02 -0.25631E-02  0.44691E-02  0.11696E-01  0.18993E-01
  0.26349E-01  0.33801E-01  0.41380E-01  0.49091E-01  0.56910E-01  0.64751E-01
  0.72367E-01  0.79313E-01  0.85053E-01  0.89210E-01  0.91787E-01  0.93157E-01
  0.93847E-01  0.94276E-01  0.94609E-01  0.94714E-01  0.94186E-01  0.92472E-01
  0.89131E-01  0.84082E-01  0.77654E-01  0.70392E-01  0.62779E-01  0.55099E-01
  0.47461E-01  0.39892E-01  0.32385E-01  0.24891E-01  0.17345E-01  0.97307E-02
  0.21622E-02 -0.51319E-02 -0.28020E-01 -0.22939E-01 -0.16820E-01 -0.98297E-02
 -0.21608E-02  0.59309E-02  0.14216E-01  0.22572E-01  0.30959E-01  0.39344E-01
  0.47704E-01  0.56051E-01  0.64354E-01  0.72368E-01  0.79521E-01  0.85034E-01
  0.88283E-01  0.89184E-01  0.88332E-01  0.86759E-01  0.85500E-01  0.85252E-01
  0.86266E-01  0.88339E-01  0.90802E-01  0.92613E-01  0.92680E-01  0.90309E-01
  0.85494E-01  0.78823E-01  0.71100E-01  0.62963E-01  0.54711E-01  0.46387E-01
  0.37954E-01  0.29399E-01  0.20722E-01  0.11948E-01  0.31946E-02 -0.52898E-02
 -0.31086E-01 -0.24878E-01 -0.17672E-01 -0.96031E-02 -0.85366E-03  0.82927E-02
  0.17588E-01  0.26915E-01  0.36209E-01  0.45379E-01  0.54364E-01  0.63171E-01
  0.71677E-01  0.79315E-01  0.85035E-01  0.87751E-01  0.87014E-01  0.83424E-01
  0.78449E-01  0.73786E-01  0.70720E-01  0.69913E-01  0.71556E-01  0.75494E-01
  0.81096E-01  0.87086E-01  0.91745E-01  0.93521E-01  0.91696E-01  0.86619E-01
  0.79367E-01  0.71067E-01  0.62375E-01  0.53441E-01  0.44215E-01  0.34704E-01
  0.24967E-01  0.15058E-01  0.50977E-02 -0.46332E-02 -0.33521E-01 -0.26017E-01
 -0.17655E-01 -0.84733E-02  0.13918E-02  0.11594E-01  0.21813E-01  0.31932E-01
  0.41914E-01  0.51668E-01  0.61109E-01  0.70175E-01  0.78503E-01  0.85054E-01
  0.88283E-01  0.87014E-01  0.81391E-01  0.73107E-01  0.64639E-01  0.58050E-01
  0.54288E-01  0.53402E-01  0.55286E-01  0.60062E-01  0.67686E-01  0.77221E-01
  0.86614E-01  0.93360E-01  0.95656E-01  0.93218E-01  0.87165E-01  0.79102E-01
  0.70172E-01  0.60776E-01  0.50935E-01  0.40673E-01  0.30046E-01  0.19077E-01
  0.78886E-02 -0.31406E-02 -0.35470E-01 -0.26628E-01 -0.17129E-01 -0.68069E-02
  0.42780E-02  0.15623E-01  0.26717E-01  0.37413E-01  0.47792E-01  0.57877E-01
  0.67585E-01  0.76680E-01  0.84411E-01  0.89210E-01  0.89184E-01  0.83422E-01
  0.73106E-01  0.61300E-01  0.51374E-01  0.45219E-01  0.42646E-01  0.42406E-01
  0.43841E-01  0.47637E-01  0.55015E-01  0.66118E-01  0.79065E-01  0.90510E-01
  0.97339E-01  0.98241E-01  0.94031E-01  0.86625E-01  0.77683E-01  0.68000E-01
  0.57781E-01  0.47058E-01  0.35763E-01  0.23776E-01  0.11253E-01 -0.11908E-02
 -0.37331E-01 -0.27302E-01 -0.16788E-01 -0.53009E-02  0.71720E-02  0.19836E-01
  0.31831E-01  0.42932E-01  0.53430E-01  0.63590E-01  0.73367E-01  0.82279E-01
  0.89101E-01  0.91785E-01  0.88329E-01  0.78446E-01  0.64636E-01  0.51372E-01
  0.42622E-01  0.39508E-01  0.40022E-01  0.41089E-01  0.41333E-01  0.42249E-01
  0.46859E-01  0.57018E-01  0.71521E-01  0.86446E-01  0.97355E-01  0.10168E+00
  0.99625E-01  0.93164E-01  0.84408E-01  0.74623E-01  0.64285E-01  0.53394E-01
  0.41612E-01  0.28573E-01  0.14518E-01  0.48773E-03 -0.39296E-01 -0.28393E-01
 -0.17076E-01 -0.44814E-02  0.94452E-02  0.23519E-01  0.36425E-01  0.47823E-01
  0.58255E-01  0.68309E-01  0.78013E-01  0.86628E-01  0.92477E-01  0.93153E-01
  0.86754E-01  0.73780E-01  0.58045E-01  0.45214E-01  0.39506E-01  0.40939E-01
  0.45460E-01  0.48081E-01  0.46722E-01  0.43757E-01  0.44135E-01  0.51599E-01
  0.65880E-01  0.82760E-01  0.96688E-01  0.10388E+00  0.10380E+00  0.98303E-01
  0.89823E-01  0.80077E-01  0.69812E-01  0.58950E-01  0.46791E-01  0.32679E-01
  0.16995E-01  0.13295E-02 -0.40961E-01 -0.29547E-01 -0.17701E-01 -0.42557E-02
  0.10849E-01  0.26076E-01  0.39710E-01  0.51307E-01  0.61625E-01  0.71530E-01
  0.81129E-01  0.89485E-01  0.94593E-01  0.93840E-01  0.85492E-01  0.70711E-01
  0.54280E-01  0.42638E-01  0.40016E-01  0.45457E-01  0.53300E-01  0.57130E-01
  0.54382E-01  0.48128E-01  0.44783E-01  0.49544E-01  0.62921E-01  0.80587E-01
  0.96256E-01  0.10529E+00  0.10654E+00  0.10172E+00  0.93460E-01  0.83787E-01
  0.73645E-01  0.62862E-01  0.50419E-01  0.35421E-01  0.18394E-01  0.14153E-02
 -0.41582E-01 -0.29975E-01 -0.17912E-01 -0.41082E-02  0.11483E-01  0.27169E-01
  0.41082E-01  0.52744E-01  0.63012E-01  0.72862E-01  0.82430E-01  0.90699E-01
  0.95539E-01  0.94266E-01  0.85241E-01  0.69900E-01  0.53390E-01  0.42395E-01
  0.41080E-01  0.48075E-01  0.57127E-01  0.61346E-01  0.58045E-01  0.50578E-01
  0.45878E-01  0.49634E-01  0.62615E-01  0.80456E-01  0.96628E-01  0.10620E+00
  0.10784E+00  0.10320E+00  0.94973E-01  0.85298E-01  0.75185E-01  0.64410E-01
  0.51819E-01  0.36423E-01  0.18820E-01  0.12903E-02 -0.40818E-01 -0.29305E-01
 -0.17351E-01 -0.37891E-02  0.11405E-01  0.26666E-01  0.40289E-01  0.51870E-01
  0.62198E-01  0.72145E-01  0.81805E-01  0.90217E-01  0.95353E-01  0.94597E-01
  0.86253E-01  0.71541E-01  0.55271E-01  0.43827E-01  0.41321E-01  0.46712E-01
  0.54375E-01  0.58041E-01  0.55295E-01  0.49255E-01  0.46250E-01  0.51323E-01
  0.64859E-01  0.82485E-01  0.97954E-01  0.10671E+00  0.10768E+00  0.10264E+00
  0.94209E-01  0.84409E-01  0.74167E-01  0.63283E-01  0.50715E-01  0.35561E-01
  0.18371E-01  0.12494E-02 -0.39106E-01 -0.28014E-01 -0.16488E-01 -0.36709E-02
  0.10430E-01  0.24585E-01  0.37497E-01  0.48892E-01  0.59363E-01  0.69507E-01
  0.79337E-01  0.88075E-01  0.94002E-01  0.94701E-01  0.88324E-01  0.75478E-01
  0.60045E-01  0.47621E-01  0.42235E-01  0.43746E-01  0.48120E-01  0.50573E-01
  0.49253E-01  0.46614E-01  0.47478E-01  0.55355E-01  0.69784E-01  0.86482E-01
  0.99966E-01  0.10661E+00  0.10599E+00  0.10006E+00  0.91249E-01  0.81246E-01
  0.70770E-01  0.59702E-01  0.47300E-01  0.32894E-01  0.16897E-01  0.94578E-03
 -0.37212E-01 -0.26919E-01 -0.16111E-01 -0.43172E-02  0.84037E-02  0.21209E-01
  0.33265E-01  0.44416E-01  0.55005E-01  0.65312E-01  0.75282E-01  0.84401E-01
  0.91392E-01  0.94173E-01  0.90787E-01  0.81080E-01  0.67669E-01  0.54999E-01
  0.46846E-01  0.44124E-01  0.44774E-01  0.45872E-01  0.46246E-01  0.47476E-01
  0.52477E-01  0.62883E-01  0.77310E-01  0.91786E-01  0.10197E+00  0.10548E+00
  0.10267E+00  0.95611E-01  0.86385E-01  0.76217E-01  0.65547E-01  0.54338E-01
  0.42205E-01  0.28759E-01  0.14268E-01 -0.17503E-03 -0.35490E-01 -0.26331E-01
 -0.16476E-01 -0.57881E-02  0.56036E-02  0.17156E-01  0.28388E-01  0.39213E-01
  0.49754E-01  0.60048E-01  0.70018E-01  0.79417E-01  0.87440E-01  0.92460E-01
  0.92600E-01  0.87072E-01  0.77207E-01  0.66105E-01  0.57006E-01  0.51589E-01
  0.49537E-01  0.49629E-01  0.51320E-01  0.55354E-01  0.62883E-01  0.73909E-01
  0.86435E-01  0.97111E-01  0.10295E+00  0.10282E+00  0.97709E-01  0.89585E-01
  0.80066E-01  0.69886E-01  0.59215E-01  0.48061E-01  0.36319E-01  0.23842E-01
  0.10798E-01 -0.21505E-02 -0.33682E-01 -0.25830E-01 -0.17076E-01 -0.74952E-02
  0.27188E-02  0.13191E-01  0.23629E-01  0.33961E-01  0.44178E-01  0.54204E-01
  0.63977E-01  0.73439E-01  0.82190E-01  0.89121E-01  0.92669E-01  0.91734E-01
  0.86603E-01  0.79055E-01  0.71513E-01  0.65874E-01  0.62917E-01  0.62613E-01
  0.64857E-01  0.69783E-01  0.77310E-01  0.86435E-01  0.95074E-01  0.10078E+00
  0.10188E+00  0.98290E-01  0.91251E-01  0.82398E-01  0.72814E-01  0.62830E-01
  0.52437E-01  0.41649E-01  0.30499E-01  0.18981E-01  0.72256E-02 -0.43512E-02
 -0.31365E-01 -0.24794E-01 -0.17183E-01 -0.86992E-02  0.42833E-03  0.98971E-02
  0.19481E-01  0.29096E-01  0.38696E-01  0.48203E-01  0.57580E-01  0.66857E-01
  0.75897E-01  0.84075E-01  0.90301E-01  0.93514E-01  0.93353E-01  0.90504E-01
  0.86441E-01  0.82758E-01  0.80585E-01  0.80456E-01  0.82485E-01  0.86482E-01
  0.91786E-01  0.97111E-01  0.10078E+00  0.10134E+00  0.98225E-01  0.91952E-01
  0.83683E-01  0.74549E-01  0.65144E-01  0.55557E-01  0.45715E-01  0.35615E-01
  0.25303E-01  0.14814E-01  0.42721E-02 -0.60092E-02 -0.28409E-01 -0.22958E-01
 -0.16432E-01 -0.90197E-02 -0.95031E-03  0.75062E-02  0.16135E-01  0.24840E-01
  0.33593E-01  0.42376E-01  0.51186E-01  0.60057E-01  0.68969E-01  0.77650E-01
  0.85490E-01  0.91692E-01  0.95653E-01  0.97337E-01  0.97355E-01  0.96689E-01
  0.96258E-01  0.96630E-01  0.97956E-01  0.99968E-01  0.10197E+00  0.10295E+00
  0.10188E+00  0.98225E-01  0.92118E-01  0.84264E-01  0.75520E-01  0.66512E-01
  0.57499E-01  0.48481E-01  0.39402E-01  0.30232E-01  0.20957E-01  0.11592E-01
  0.22645E-02 -0.67503E-02 -0.24996E-01 -0.20462E-01 -0.14897E-01 -0.84869E-02
 -0.14437E-02  0.59889E-02  0.13601E-01  0.21289E-01  0.29059E-01  0.36963E-01
  0.45045E-01  0.53326E-01  0.61803E-01  0.70390E-01  0.78822E-01  0.86619E-01
  0.93220E-01  0.98244E-01  0.10169E+00  0.10389E+00  0.10529E+00  0.10621E+00
  0.10671E+00  0.10661E+00  0.10548E+00  0.10282E+00  0.98290E-01  0.91952E-01
  0.84264E-01  0.75848E-01  0.67213E-01  0.58631E-01  0.50193E-01  0.41909E-01
  0.33747E-01  0.25636E-01  0.17489E-01  0.92913E-02  0.11697E-02 -0.66269E-02
 -0.21375E-01 -0.17567E-01 -0.12813E-01 -0.72960E-02 -0.12136E-02  0.52202E-02
  0.11813E-01  0.18461E-01  0.25188E-01  0.32099E-01  0.39296E-01  0.46816E-01
  0.54653E-01  0.62780E-01  0.71101E-01  0.79370E-01  0.87170E-01  0.94037E-01
  0.99633E-01  0.10381E+00  0.10655E+00  0.10785E+00  0.10769E+00  0.10600E+00
  0.10268E+00  0.97710E-01  0.91252E-01  0.83684E-01  0.75520E-01  0.67213E-01
  0.59031E-01  0.51079E-01  0.43401E-01  0.36017E-01  0.28882E-01  0.21872E-01
  0.14854E-01  0.78015E-02  0.83335E-03 -0.58367E-02 -0.17726E-01 -0.14480E-01
 -0.10392E-01 -0.56475E-02 -0.44027E-03  0.50454E-02  0.10648E-01  0.16276E-01
  0.21952E-01  0.27805E-01  0.33985E-01  0.40584E-01  0.47626E-01  0.55102E-01
  0.62967E-01  0.71073E-01  0.79110E-01  0.86636E-01  0.93176E-01  0.98315E-01
  0.10173E+00  0.10321E+00  0.10265E+00  0.10007E+00  0.95616E-01  0.89588E-01
  0.82400E-01  0.74550E-01  0.66513E-01  0.58632E-01  0.51080E-01  0.43921E-01
  0.37178E-01  0.30833E-01  0.24787E-01  0.18875E-01  0.12952E-01  0.69936E-02
  0.11008E-02 -0.45576E-02 -0.14218E-01 -0.11397E-01 -0.78452E-02 -0.37544E-02
  0.67558E-03  0.52785E-02  0.99312E-02  0.14569E-01  0.19218E-01  0.24004E-01
  0.29099E-01  0.34656E-01  0.40766E-01  0.47464E-01  0.54716E-01  0.62383E-01
  0.70182E-01  0.77696E-01  0.84422E-01  0.89838E-01  0.93475E-01  0.94986E-01
  0.94221E-01  0.91258E-01  0.86391E-01  0.80070E-01  0.72816E-01  0.65146E-01
  0.57501E-01  0.50196E-01  0.43403E-01  0.37179E-01  0.31496E-01  0.26260E-01
  0.21314E-01  0.16474E-01  0.11611E-01  0.66955E-02  0.17909E-02 -0.29781E-02
 -0.11046E-01 -0.85516E-02 -0.54169E-02 -0.18511E-02  0.19203E-02  0.57274E-02
  0.94783E-02  0.13154E-01  0.16805E-01  0.20552E-01  0.24565E-01  0.29027E-01
  0.34102E-01  0.39893E-01  0.46391E-01  0.53449E-01  0.60787E-01  0.68014E-01
  0.74639E-01  0.80094E-01  0.83804E-01  0.85313E-01  0.84422E-01  0.81257E-01
  0.76225E-01  0.69892E-01  0.62834E-01  0.55561E-01  0.48485E-01  0.41914E-01
  0.36022E-01  0.30837E-01  0.26264E-01  0.22133E-01  0.18258E-01  0.14467E-01
  0.10635E-01  0.67046E-02  0.26880E-02 -0.13252E-02 -0.83593E-02 -0.61277E-02
 -0.33035E-02 -0.12965E-03  0.31155E-02  0.62296E-02  0.91369E-02  0.11873E-01
  0.14542E-01  0.17281E-01  0.20246E-01  0.23623E-01  0.27615E-01  0.32382E-01
  0.37956E-01  0.44221E-01  0.50945E-01  0.57795E-01  0.64301E-01  0.69830E-01
  0.73663E-01  0.75202E-01  0.74182E-01  0.70783E-01  0.65557E-01  0.59223E-01
  0.52444E-01  0.45722E-01  0.39410E-01  0.33756E-01  0.28891E-01  0.24797E-01
  0.21322E-01  0.18264E-01  0.15435E-01  0.12675E-01  0.98465E-02  0.68364E-02
  0.36000E-02  0.20479E-03 -0.61587E-02 -0.41605E-02 -0.15724E-02  0.13089E-02
  0.41302E-02  0.66385E-02  0.87612E-02  0.10587E-01  0.12287E-01  0.14033E-01
  0.15980E-01  0.18303E-01  0.21211E-01  0.24883E-01  0.29396E-01  0.34706E-01
  0.40680E-01  0.47069E-01  0.53408E-01  0.58966E-01  0.62880E-01  0.64428E-01
  0.63300E-01  0.59717E-01  0.54351E-01  0.48073E-01  0.41660E-01  0.35627E-01
  0.30245E-01  0.25650E-01  0.21888E-01  0.18891E-01  0.16491E-01  0.14481E-01
  0.12684E-01  0.10941E-01  0.90792E-02  0.69272E-02  0.43842E-02  0.15020E-02
 -0.43094E-02 -0.25490E-02 -0.18912E-03  0.24144E-02  0.48353E-02  0.67765E-02
  0.81688E-02  0.91425E-02  0.99170E-02  0.10697E-01  0.11648E-01  0.12940E-01
  0.14773E-01  0.17328E-01  0.20712E-01  0.24962E-01  0.30047E-01  0.35769E-01
  0.41622E-01  0.46805E-01  0.50435E-01  0.51836E-01  0.50732E-01  0.47317E-01
  0.42221E-01  0.36335E-01  0.30515E-01  0.25321E-01  0.20976E-01  0.17510E-01
  0.14878E-01  0.12978E-01  0.11638E-01  0.10661E-01  0.98672E-02  0.90914E-02
  0.81372E-02  0.67895E-02  0.49007E-02  0.25013E-02 -0.26931E-02 -0.12058E-02
  0.85973E-03  0.31069E-02  0.50683E-02  0.64357E-02  0.71561E-02  0.73801E-02
  0.73360E-02  0.72282E-02  0.72253E-02  0.75064E-02  0.82727E-02  0.97032E-02
  0.11928E-01  0.15044E-01  0.19070E-01  0.23775E-01  0.28578E-01  0.32689E-01
  0.35434E-01  0.36439E-01  0.35578E-01  0.32912E-01  0.28779E-01  0.23863E-01
  0.19003E-01  0.14838E-01  0.11619E-01  0.93220E-02  0.78360E-02  0.70315E-02
  0.67355E-02  0.67442E-02  0.68721E-02  0.69549E-02  0.68051E-02  0.62017E-02
  0.49669E-02  0.30982E-02 -0.13913E-02 -0.21012E-03  0.14758E-02  0.32576E-02
  0.46767E-02  0.54605E-02  0.55881E-02  0.52064E-02  0.45041E-02  0.36425E-02
  0.27759E-02  0.20958E-02  0.18167E-02  0.21225E-02  0.31629E-02  0.50734E-02
  0.78710E-02  0.11242E-01  0.14514E-01  0.16998E-01  0.18403E-01  0.18833E-01
  0.18388E-01  0.16917E-01  0.14292E-01  0.10824E-01  0.72552E-02  0.43047E-02
  0.23009E-02  0.12108E-02  0.87960E-03  0.11521E-02  0.18458E-02  0.27441E-02
  0.36532E-02  0.44302E-02  0.49351E-02  0.49861E-02  0.44016E-02  0.31376E-02
 -0.68732E-03  0.22050E-03  0.15161E-02  0.27913E-02  0.36409E-02  0.38712E-02
  0.35076E-02  0.26736E-02  0.14824E-02  0.22511E-04 -0.15812E-02 -0.31290E-02
 -0.43933E-02 -0.51844E-02 -0.53335E-02 -0.46692E-02 -0.31695E-02 -0.12122E-02
  0.47450E-03  0.13248E-02  0.14181E-02  0.12995E-02  0.12643E-02  0.96647E-03
 -0.14838E-03 -0.21184E-02 -0.43146E-02 -0.59683E-02 -0.67045E-02 -0.65751E-02
 -0.57781E-02 -0.44921E-02 -0.29071E-02 -0.12513E-02  0.27736E-03  0.15687E-02
  0.25577E-02  0.31404E-02  0.31614E-02  0.25304E-02 -0.44283E-03  0.78095E-04
  0.46215E-03  0.16803E-03 -0.93491E-03 -0.25948E-02 -0.45341E-02 -0.67200E-02
 -0.93301E-02 -0.12542E-01 -0.16370E-01 -0.20664E-01 -0.25217E-01 -0.29868E-01
 -0.34463E-01 -0.38738E-01 -0.42339E-01 -0.45051E-01 -0.46963E-01 -0.48303E-01
 -0.49146E-01 -0.49377E-01 -0.48949E-01 -0.48023E-01 -0.46743E-01 -0.44975E-01
 -0.42411E-01 -0.38936E-01 -0.34783E-01 -0.30339E-01 -0.25879E-01 -0.21541E-01
 -0.17461E-01 -0.13827E-01 -0.10786E-01 -0.83215E-02 -0.62406E-02 -0.43458E-02
 -0.26661E-02 -0.15037E-02  0.44281E-04  0.49616E-03  0.96892E-03  0.92336E-03
  0.14870E-03 -0.11927E-02 -0.28595E-02 -0.47976E-02 -0.71426E-02 -0.10035E-01
 -0.13458E-01 -0.17221E-01 -0.21085E-01 -0.24861E-01 -0.28363E-01 -0.31299E-01
 -0.33355E-01 -0.34475E-01 -0.34989E-01 -0.35329E-01 -0.35620E-01 -0.35673E-01
 -0.35386E-01 -0.34958E-01 -0.34604E-01 -0.34156E-01 -0.33124E-01 -0.31157E-01
 -0.28326E-01 -0.24964E-01 -0.21367E-01 -0.17708E-01 -0.14152E-01 -0.10919E-01
 -0.81855E-02 -0.59628E-02 -0.41009E-02 -0.24600E-02 -0.11051E-02 -0.30179E-03
  0.39500E-03  0.93523E-03  0.16733E-02  0.20592E-02  0.17699E-02  0.84383E-03
 -0.52076E-03 -0.22153E-02 -0.42791E-02 -0.67781E-02 -0.96620E-02 -0.12734E-01
 -0.15748E-01 -0.18491E-01 -0.20751E-01 -0.22243E-01 -0.22722E-01 -0.22285E-01
 -0.21450E-01 -0.20793E-01 -0.20490E-01 -0.20334E-01 -0.20198E-01 -0.20294E-01
 -0.20858E-01 -0.21683E-01 -0.22153E-01 -0.21733E-01 -0.20333E-01 -0.18201E-01
 -0.15621E-01 -0.12794E-01 -0.99112E-02 -0.72022E-02 -0.48451E-02 -0.28776E-02
 -0.12306E-02  0.12411E-03  0.10533E-02  0.13366E-02  0.73073E-04  0.86099E-03
  0.20300E-02  0.30075E-02  0.33552E-02  0.29810E-02  0.20332E-02  0.67954E-03
 -0.10040E-02 -0.29888E-02 -0.51882E-02 -0.74120E-02 -0.94195E-02 -0.10988E-01
 -0.11888E-01 -0.11845E-01 -0.10663E-01 -0.85145E-02 -0.60234E-02 -0.39224E-02
 -0.25999E-02 -0.20498E-02 -0.22288E-02 -0.32663E-02 -0.52006E-02 -0.76215E-02
 -0.97600E-02 -0.10975E-01 -0.11093E-01 -0.10304E-01 -0.88753E-02 -0.70259E-02
 -0.49656E-02 -0.29173E-02 -0.10503E-02  0.56486E-03  0.18983E-02  0.28511E-02
  0.32215E-02  0.28401E-02 -0.10496E-02  0.64782E-04  0.17177E-02  0.33315E-02
  0.43903E-02  0.46944E-02  0.43326E-02  0.35052E-02  0.23834E-02  0.10858E-02
 -0.26351E-03 -0.14823E-02 -0.23451E-02 -0.26285E-02 -0.21024E-02 -0.50281E-03
  0.23548E-02  0.63103E-02  0.10717E-01  0.14661E-01  0.17383E-01  0.18479E-01
  0.17813E-01  0.15436E-01  0.11717E-01  0.74330E-02  0.35314E-02  0.67771E-03
 -0.96288E-03 -0.15687E-02 -0.13925E-02 -0.65310E-03  0.43632E-03  0.16649E-02
  0.28708E-02  0.39468E-02  0.47720E-02  0.51471E-02  0.48336E-02  0.37209E-02
 -0.27217E-02 -0.12916E-02  0.77428E-03  0.29385E-02  0.46749E-02  0.57200E-02
  0.61007E-02  0.60102E-02  0.56691E-02  0.52554E-02  0.49203E-02  0.48383E-02
  0.52207E-02  0.62835E-02  0.82394E-02  0.11316E-01  0.15683E-01  0.21222E-01
  0.27318E-01  0.32930E-01  0.36941E-01  0.38531E-01  0.37381E-01  0.33741E-01
  0.28399E-01  0.22483E-01  0.17058E-01  0.12750E-01  0.96816E-02  0.76891E-02
  0.65587E-02  0.60928E-02  0.60857E-02  0.63354E-02  0.66814E-02  0.69870E-02
  0.70741E-02  0.66981E-02  0.56292E-02  0.38183E-02 -0.46677E-02 -0.29687E-02
 -0.60364E-03  0.19754E-02  0.42970E-02  0.60844E-02  0.73131E-02  0.81379E-02
  0.87751E-02  0.94173E-02  0.10224E-01  0.11365E-01  0.13051E-01  0.15490E-01
  0.18857E-01  0.23298E-01  0.28901E-01  0.35540E-01  0.42650E-01  0.49187E-01
  0.53891E-01  0.55733E-01  0.54307E-01  0.49979E-01  0.43754E-01  0.36890E-01
  0.30435E-01  0.24955E-01  0.20578E-01  0.17219E-01  0.14751E-01  0.13021E-01
  0.11833E-01  0.10981E-01  0.10294E-01  0.96214E-02  0.87735E-02  0.75204E-02
  0.56794E-02  0.32541E-02 -0.68567E-02 -0.49135E-02 -0.23080E-02  0.60982E-03
  0.34568E-02  0.59809E-02  0.81248E-02  0.99878E-02  0.11740E-01  0.13550E-01
  0.15573E-01  0.17991E-01  0.21019E-01  0.24862E-01  0.29636E-01  0.35363E-01
  0.41985E-01  0.49287E-01  0.56735E-01  0.63399E-01  0.68132E-01  0.69969E-01
  0.68532E-01  0.64185E-01  0.57875E-01  0.50734E-01  0.43682E-01  0.37243E-01
  0.31631E-01  0.26909E-01  0.23073E-01  0.20034E-01  0.17607E-01  0.15575E-01
  0.13747E-01  0.11961E-01  0.10051E-01  0.78435E-02  0.52240E-02  0.22333E-02
 -0.94666E-02 -0.72617E-02 -0.43779E-02 -0.10816E-02  0.23262E-02  0.56304E-02
  0.87526E-02  0.11730E-01  0.14669E-01  0.17704E-01  0.20995E-01  0.24738E-01
  0.29153E-01  0.34413E-01  0.40568E-01  0.47520E-01  0.55055E-01  0.62838E-01
  0.70331E-01  0.76752E-01  0.81193E-01  0.82908E-01  0.81609E-01  0.77582E-01
  0.71557E-01  0.64421E-01  0.56936E-01  0.49632E-01  0.42845E-01  0.36789E-01
  0.31574E-01  0.27178E-01  0.23452E-01  0.20180E-01  0.17153E-01  0.14192E-01
  0.11155E-01  0.79371E-02  0.44952E-02  0.89820E-03 -0.12675E-01 -0.10154E-01
 -0.68785E-02 -0.30698E-02  0.10241E-02  0.52116E-02  0.93891E-02  0.13534E-01
  0.17698E-01  0.22001E-01  0.26621E-01  0.31755E-01  0.37586E-01  0.44227E-01
  0.51666E-01  0.59739E-01  0.68142E-01  0.76441E-01  0.84068E-01  0.90342E-01
  0.94561E-01  0.96190E-01  0.95025E-01  0.91264E-01  0.85430E-01  0.78198E-01
  0.70234E-01  0.62104E-01  0.54244E-01  0.46956E-01  0.40408E-01  0.34628E-01
  0.29530E-01  0.24946E-01  0.20668E-01  0.16499E-01  0.12299E-01  0.80108E-02
  0.36533E-02 -0.67361E-03 -0.16497E-01 -0.13572E-01 -0.97600E-02 -0.52684E-02
 -0.32561E-03  0.48751E-02  0.10193E-01  0.15555E-01  0.20986E-01  0.26617E-01
  0.32638E-01  0.39215E-01  0.46452E-01  0.54387E-01  0.62974E-01  0.72048E-01
  0.81273E-01  0.90152E-01  0.98077E-01  0.10441E+00  0.10858E+00  0.11020E+00
  0.10911E+00  0.10545E+00  0.99610E-01  0.92129E-01  0.83629E-01  0.74717E-01
  0.65896E-01  0.57507E-01  0.49718E-01  0.42576E-01  0.36058E-01  0.30082E-01
  0.24485E-01  0.19064E-01  0.13660E-01  0.82289E-02  0.28363E-02 -0.23788E-02
 -0.20782E-01 -0.17328E-01 -0.12827E-01 -0.74883E-02 -0.15419E-02  0.47945E-02
  0.11335E-01  0.17972E-01  0.24728E-01  0.31750E-01  0.39213E-01  0.47224E-01
  0.55806E-01  0.64947E-01  0.74598E-01  0.84585E-01  0.94526E-01  0.10385E+00
  0.11194E+00  0.11822E+00  0.12228E+00  0.12386E+00  0.12286E+00  0.11938E+00
  0.11366E+00  0.10609E+00  0.97215E-01  0.87639E-01  0.77940E-01  0.68521E-01
  0.59568E-01  0.51127E-01  0.43211E-01  0.35809E-01  0.28832E-01  0.22098E-01
  0.15431E-01  0.87766E-02  0.22281E-02 -0.40315E-02 -0.25325E-01 -0.21184E-01
 -0.15833E-01 -0.94902E-02 -0.24004E-02  0.51801E-02  0.13023E-01  0.21002E-01
  0.29143E-01  0.37582E-01  0.46451E-01  0.55806E-01  0.65643E-01  0.75940E-01
  0.86603E-01  0.97349E-01  0.10765E+00  0.11686E+00  0.12444E+00  0.13004E+00
  0.13355E+00  0.13493E+00  0.13417E+00  0.13129E+00  0.12632E+00  0.11936E+00
  0.11071E+00  0.10085E+00  0.90448E-01  0.80047E-01  0.69967E-01  0.60308E-01
  0.51089E-01  0.42317E-01  0.33948E-01  0.25844E-01  0.17840E-01  0.98741E-02
  0.20502E-02 -0.54073E-02 -0.29967E-01 -0.24952E-01 -0.18569E-01 -0.11052E-01
 -0.26787E-02  0.62470E-02  0.15465E-01  0.24847E-01  0.34405E-01  0.44224E-01
  0.54386E-01  0.64948E-01  0.75940E-01  0.87306E-01  0.98774E-01  0.10978E+00
  0.11959E+00  0.12758E+00  0.13349E+00  0.13745E+00  0.13979E+00  0.14075E+00
  0.14043E+00  0.13877E+00  0.13550E+00  0.13030E+00  0.12299E+00  0.11375E+00
  0.10318E+00  0.92032E-01  0.80909E-01  0.70118E-01  0.59730E-01  0.49714E-01
  0.40007E-01  0.30507E-01  0.21098E-01  0.11731E-01  0.25118E-02 -0.63066E-02
 -0.34553E-01 -0.28445E-01 -0.20823E-01 -0.11947E-01 -0.21474E-02  0.82073E-02
  0.18836E-01  0.29624E-01  0.40562E-01  0.51665E-01  0.62975E-01  0.74600E-01
  0.86604E-01  0.98775E-01  0.11046E+00  0.12071E+00  0.12867E+00  0.13402E+00
  0.13708E+00  0.13861E+00  0.13935E+00  0.13978E+00  0.14007E+00  0.14006E+00
  0.13928E+00  0.13698E+00  0.13239E+00  0.12513E+00  0.11545E+00  0.10418E+00
  0.92301E-01  0.80517E-01  0.69096E-01  0.57981E-01  0.47037E-01  0.36178E-01
  0.25353E-01  0.14537E-01  0.38209E-02 -0.65236E-02 -0.38819E-01 -0.31374E-01
 -0.22308E-01 -0.11898E-01 -0.54282E-03  0.11289E-01  0.23281E-01  0.35354E-01
  0.47516E-01  0.59740E-01  0.72049E-01  0.84587E-01  0.97351E-01  0.10978E+00
  0.12071E+00  0.12885E+00  0.13355E+00  0.13517E+00  0.13485E+00  0.13387E+00
  0.13318E+00  0.13321E+00  0.13407E+00  0.13563E+00  0.13743E+00  0.13855E+00