       #
       # Generated by the Wannier90 code http://www.wannier.org
       # On  1Apr2018 at 06:58:10 
       #
CRYSTAL
PRIMVEC
   3.0715001   0.0000000   0.0000000
   0.0300198   3.0713534   0.0000000
   0.0300198   0.0297278   3.0712095
CONVVEC
   3.0715001   0.0000000   0.0000000
   0.0300198   3.0713534   0.0000000
   0.0300198   0.0297278   3.0712095
PRIMCOORD
     1  1
Sn      0.0000000   0.0000000   0.0000000


BEGIN_BLOCK_DATAGRID_3D
3D_field
BEGIN_DATAGRID_3D_UNKNOWN
    40    40    40
   -3.288117   -3.256135   -3.224770
   5.9894252   0.0000000   0.0000000
   0.0585386   5.9891391   0.0000000
   0.0585386   0.0579692   5.9888585
  0.22469E-02  0.89341E-03 -0.48387E-03 -0.17404E-02 -0.27277E-02 -0.33410E-02
 -0.35660E-02 -0.34601E-02 -0.30882E-02 -0.24831E-02 -0.16606E-02 -0.65305E-03
  0.47653E-03  0.16421E-02  0.27577E-02  0.37855E-02  0.47911E-02  0.59290E-02
  0.73044E-02  0.87917E-02  0.10001E-01  0.10497E-01  0.10116E-01  0.90926E-02
  0.78724E-02  0.67846E-02  0.58769E-02  0.50055E-02  0.40263E-02  0.29019E-02
  0.16869E-02  0.47301E-03 -0.64656E-03 -0.15983E-02 -0.23425E-02 -0.28649E-02
 -0.31456E-02 -0.31370E-02 -0.27824E-02 -0.20608E-02  0.92211E-03  0.50942E-04
 -0.79824E-03 -0.15653E-02 -0.21677E-02 -0.25237E-02 -0.25905E-02 -0.23670E-02
 -0.18665E-02 -0.11007E-02 -0.90123E-04  0.11183E-02  0.24463E-02  0.37933E-02
  0.50552E-02  0.61499E-02  0.70433E-02  0.77549E-02  0.83284E-02  0.87834E-02
  0.90961E-02  0.92337E-02  0.92054E-02  0.90636E-02  0.88431E-02  0.85062E-02
  0.79632E-02  0.71455E-02  0.60567E-02  0.47646E-02  0.33671E-02  0.19712E-02
  0.68244E-03 -0.41298E-03 -0.12657E-02 -0.18609E-02 -0.21989E-02 -0.22820E-02
 -0.21171E-02 -0.17274E-02 -0.42886E-03 -0.77092E-03 -0.10659E-02 -0.13315E-02
 -0.15423E-02 -0.16362E-02 -0.15443E-02 -0.12107E-02 -0.60169E-03  0.29048E-03
  0.14434E-02  0.28033E-02  0.42878E-02  0.57946E-02  0.72148E-02  0.84352E-02
  0.93301E-02  0.97794E-02  0.97425E-02  0.93480E-02  0.88962E-02  0.87211E-02
  0.89867E-02  0.95709E-02  0.10135E-01  0.10328E-01  0.99700E-02  0.90917E-02
  0.78425E-02  0.63797E-02  0.48285E-02  0.32989E-02  0.18980E-02  0.71365E-03
 -0.20442E-03 -0.84465E-03 -0.12265E-02 -0.13956E-02 -0.14148E-02 -0.13471E-02
 -0.16657E-02 -0.15165E-02 -0.13089E-02 -0.11207E-02 -0.96923E-03 -0.80824E-03
 -0.55072E-03 -0.10325E-03  0.59973E-03  0.15784E-02  0.28133E-02  0.42571E-02
  0.58363E-02  0.74552E-02  0.90078E-02  0.10371E-01  0.11371E-01  0.11801E-01
  0.11546E-01  0.10769E-01  0.99361E-02  0.95851E-02  0.99643E-02  0.10850E-01
  0.11701E-01  0.12016E-01  0.11602E-01  0.10572E-01  0.91631E-02  0.75711E-02
  0.59263E-02  0.43340E-02  0.28942E-02  0.16845E-02  0.74549E-03  0.83421E-04
 -0.33351E-03 -0.58098E-03 -0.76233E-03 -0.96924E-03 -0.26405E-02 -0.21038E-02
 -0.15025E-02 -0.95102E-03 -0.49534E-03 -0.10295E-03  0.31928E-03  0.88204E-03
  0.16628E-02  0.26841E-02  0.39319E-02  0.53754E-02  0.69615E-02  0.86065E-02
  0.10210E-01  0.11653E-01  0.12768E-01  0.13328E-01  0.13187E-01  0.12474E-01
  0.11649E-01  0.11261E-01  0.11563E-01  0.12322E-01  0.12992E-01  0.13097E-01
  0.12488E-01  0.11316E-01  0.98229E-02  0.81969E-02  0.65568E-02  0.49994E-02
  0.36100E-02  0.24447E-02  0.15293E-02  0.86694E-03  0.42412E-03  0.11151E-03
 -0.19687E-03 -0.60908E-03 -0.32457E-02 -0.24486E-02 -0.15826E-02 -0.77441E-03
 -0.86755E-04  0.49878E-03  0.10688E-02  0.17313E-02  0.25581E-02  0.35661E-02
  0.47467E-02  0.60914E-02  0.75750E-02  0.91314E-02  0.10665E-01  0.12068E-01
  0.13198E-01  0.13870E-01  0.13944E-01  0.13498E-01  0.12883E-01  0.12532E-01
  0.12651E-01  0.13059E-01  0.13339E-01  0.13136E-01  0.12362E-01  0.11153E-01
  0.97065E-02  0.81740E-02  0.66611E-02  0.52547E-02  0.40175E-02  0.29767E-02
  0.21394E-02  0.15076E-02  0.10548E-02  0.69450E-03  0.29662E-03 -0.24965E-03
 -0.34635E-02 -0.25050E-02 -0.14773E-02 -0.50196E-03  0.35102E-03  0.10844E-02
  0.17658E-02  0.24838E-02  0.32952E-02  0.42119E-02  0.52352E-02  0.63800E-02
  0.76485E-02  0.89939E-02  0.10326E-01  0.11545E-01  0.12537E-01  0.13174E-01
  0.13355E-01  0.13124E-01  0.12707E-01  0.12393E-01  0.12324E-01  0.12392E-01
  0.12335E-01  0.11935E-01  0.11144E-01  0.10053E-01  0.87995E-02  0.74968E-02
  0.62379E-02  0.50974E-02  0.41146E-02  0.32878E-02  0.26037E-02  0.20581E-02
  0.16305E-02  0.12473E-02  0.79287E-03  0.16795E-03 -0.33502E-02 -0.22708E-02
 -0.11307E-02 -0.39951E-04  0.92867E-03  0.17616E-02  0.24984E-02  0.31990E-02
  0.39065E-02  0.46395E-02  0.54170E-02  0.62717E-02  0.72215E-02  0.82337E-02
  0.92293E-02  0.10118E-01  0.10817E-01  0.11245E-01  0.11350E-01  0.11165E-01
  0.10827E-01  0.10510E-01  0.10305E-01  0.10161E-01  0.99416E-02  0.95262E-02
  0.88853E-02  0.80680E-02  0.71536E-02  0.62201E-02  0.53398E-02  0.45700E-02
  0.39320E-02  0.34079E-02  0.29673E-02  0.25895E-02  0.22481E-02  0.18824E-02
  0.14028E-02  0.73431E-03 -0.29715E-02 -0.17607E-02 -0.50986E-03  0.67587E-03
  0.17224E-02  0.26012E-02  0.33223E-02  0.39191E-02  0.44310E-02  0.48960E-02
  0.53526E-02  0.58383E-02  0.63696E-02  0.69238E-02  0.74459E-02  0.78747E-02
  0.81577E-02  0.82521E-02  0.81391E-02  0.78509E-02  0.74753E-02  0.71147E-02
  0.68270E-02  0.65992E-02  0.63704E-02  0.60825E-02  0.57161E-02  0.52911E-02
  0.48447E-02  0.44151E-02  0.40371E-02  0.37388E-02  0.35281E-02  0.33851E-02
  0.32726E-02  0.31501E-02  0.29725E-02  0.26828E-02  0.22177E-02  0.15308E-02
 -0.23617E-02 -0.98789E-03  0.39105E-03  0.16641E-02  0.27537E-02  0.36191E-02
  0.42489E-02  0.46620E-02  0.49061E-02  0.50396E-02  0.51106E-02  0.51475E-02
  0.51601E-02  0.51434E-02  0.50832E-02  0.49614E-02  0.47578E-02  0.44537E-02
  0.40464E-02  0.35665E-02  0.30757E-02  0.26404E-02  0.23038E-02  0.20744E-02
  0.19345E-02  0.18600E-02  0.18390E-02  0.18762E-02  0.19813E-02  0.21542E-02
  0.23837E-02  0.26562E-02  0.29576E-02  0.32673E-02  0.35502E-02  0.37546E-02
  0.38167E-02  0.36726E-02  0.32732E-02  0.25952E-02 -0.15371E-02  0.26530E-04
  0.15491E-02  0.29052E-02  0.40081E-02  0.48066E-02  0.52794E-02  0.54469E-02
  0.53703E-02  0.51183E-02  0.47344E-02  0.42382E-02  0.36483E-02  0.29938E-02
  0.23050E-02  0.15993E-02  0.87833E-03  0.13888E-03 -0.60956E-03 -0.13342E-02
 -0.19858E-02 -0.25154E-02 -0.28851E-02 -0.30708E-02 -0.30634E-02 -0.28685E-02
 -0.24987E-02 -0.19650E-02 -0.12792E-02 -0.46673E-03  0.42810E-03  0.13506E-02
  0.22502E-02  0.30871E-02  0.38245E-02  0.44114E-02  0.47762E-02  0.48433E-02
  0.45616E-02  0.39189E-02 -0.52986E-03  0.12361E-02  0.29114E-02  0.43522E-02
  0.54555E-02  0.61557E-02  0.64289E-02  0.63067E-02  0.58613E-02  0.51606E-02
  0.42437E-02  0.31418E-02  0.19071E-02  0.60713E-03 -0.70247E-03 -0.19899E-02
 -0.32358E-02 -0.44169E-02 -0.55009E-02 -0.64538E-02 -0.72489E-02 -0.78654E-02
 -0.82760E-02 -0.84371E-02 -0.83024E-02 -0.78472E-02 -0.70817E-02 -0.60417E-02
 -0.47730E-02 -0.33250E-02 -0.17572E-02 -0.14658E-03  0.14190E-02  0.28601E-02
  0.41182E-02  0.51408E-02  0.58570E-02  0.61810E-02  0.60500E-02  0.54539E-02
  0.59802E-03  0.25635E-02  0.43963E-02  0.59327E-02  0.70435E-02  0.76417E-02
  0.77003E-02  0.72597E-02  0.63960E-02  0.51767E-02  0.36575E-02  0.19108E-02
  0.32499E-04 -0.18904E-02 -0.37985E-02 -0.56397E-02 -0.73440E-02 -0.88343E-02
 -0.10064E-01 -0.11043E-01 -0.11826E-01 -0.12467E-01 -0.12970E-01 -0.13257E-01
 -0.13203E-01 -0.12693E-01 -0.11682E-01 -0.10212E-01 -0.83855E-02 -0.63108E-02
 -0.40804E-02 -0.17807E-02  0.48275E-03  0.25901E-02  0.44384E-02  0.59510E-02
  0.70518E-02  0.76498E-02  0.76730E-02  0.71138E-02  0.17611E-02  0.39090E-02
  0.59024E-02  0.75516E-02  0.86890E-02  0.91990E-02  0.90468E-02  0.82732E-02
  0.69517E-02  0.51619E-02  0.30050E-02  0.61300E-03 -0.18882E-02 -0.44114E-02
 -0.68747E-02 -0.91412E-02 -0.11031E-01 -0.12420E-01 -0.13328E-01 -0.13916E-01
 -0.14405E-01 -0.14969E-01 -0.15651E-01 -0.16335E-01 -0.16773E-01 -0.16682E-01
 -0.15855E-01 -0.14252E-01 -0.12008E-01 -0.93462E-02 -0.64626E-02 -0.34866E-02
 -0.52787E-03  0.22731E-02  0.47595E-02  0.68024E-02  0.83029E-02  0.91690E-02
  0.93299E-02  0.87855E-02  0.28734E-02  0.51687E-02  0.73213E-02  0.91032E-02
  0.10291E-01  0.10732E-01  0.10379E-01  0.92684E-02  0.74738E-02  0.51020E-02
  0.23167E-02 -0.69575E-03 -0.37952E-02 -0.68736E-02 -0.97438E-02 -0.12093E-01
 -0.13627E-01 -0.14284E-01 -0.14317E-01 -0.14148E-01 -0.14169E-01 -0.14614E-01
 -0.15530E-01 -0.16781E-01 -0.18059E-01 -0.18916E-01 -0.18894E-01 -0.17714E-01
 -0.15420E-01 -0.12336E-01 -0.88455E-02 -0.52113E-02 -0.15792E-02  0.19017E-02
  0.50304E-02  0.76124E-02  0.95105E-02  0.10630E-01  0.10906E-01  0.10350E-01
  0.38970E-02  0.62603E-02  0.85393E-02  0.10464E-01  0.11733E-01  0.12132E-01
  0.11595E-01  0.10156E-01  0.79010E-02  0.49791E-02  0.16104E-02 -0.19834E-02
 -0.56364E-02 -0.91398E-02 -0.12093E-01 -0.13984E-01 -0.14538E-01 -0.14002E-01
 -0.13029E-01 -0.12279E-01 -0.12112E-01 -0.12587E-01 -0.13641E-01 -0.15206E-01
 -0.17129E-01 -0.19018E-01 -0.20216E-01 -0.20058E-01 -0.18267E-01 -0.15109E-01
 -0.11160E-01 -0.69146E-02 -0.26445E-02  0.14697E-02  0.51979E-02  0.82905E-02
  0.10565E-01  0.11914E-01  0.12274E-01  0.11674E-01  0.48957E-02  0.71481E-02
  0.94294E-02  0.11460E-01  0.12842E-01  0.13258E-01  0.12583E-01  0.10851E-01
  0.81808E-02  0.47731E-02  0.88774E-03 -0.32305E-02 -0.73414E-02 -0.11030E-01
 -0.13626E-01 -0.14538E-01 -0.13805E-01 -0.12259E-01 -0.11005E-01 -0.10684E-01
 -0.11199E-01 -0.12061E-01 -0.12954E-01 -0.14004E-01 -0.15572E-01 -0.17737E-01
 -0.19910E-01 -0.21028E-01 -0.20235E-01 -0.17452E-01 -0.13303E-01 -0.85537E-02
 -0.37039E-02  0.97297E-03  0.52210E-02  0.87565E-02  0.11354E-01  0.12874E-01
  0.13258E-01  0.12576E-01  0.60223E-02  0.78494E-02  0.98692E-02  0.11880E-01
  0.13394E-01  0.13922E-01  0.13213E-01  0.11273E-01  0.82706E-02  0.44654E-02
  0.14566E-03 -0.44134E-02 -0.88330E-02 -0.12420E-01 -0.14285E-01 -0.14002E-01
 -0.12260E-01 -0.10648E-01 -0.10566E-01 -0.12208E-01 -0.14540E-01 -0.16201E-01
 -0.16516E-01 -0.15930E-01 -0.15640E-01 -0.16641E-01 -0.18825E-01 -0.20892E-01
 -0.21267E-01 -0.19216E-01 -0.15163E-01 -0.10072E-01 -0.47348E-02  0.41309E-03
  0.50735E-02  0.89424E-02  0.11752E-01  0.13330E-01  0.13639E-01  0.12852E-01
  0.73805E-02  0.84061E-02  0.98164E-02  0.11611E-01  0.13240E-01  0.13985E-01
  0.13384E-01  0.11370E-01  0.81518E-02  0.40536E-02 -0.60609E-03 -0.54998E-02
 -0.10065E-01 -0.13328E-01 -0.14318E-01 -0.13030E-01 -0.11006E-01 -0.10566E-01
 -0.13106E-01 -0.17973E-01 -0.22914E-01 -0.25598E-01 -0.25005E-01 -0.21943E-01
 -0.18556E-01 -0.17004E-01 -0.18002E-01 -0.20287E-01 -0.21610E-01 -0.20407E-01
 -0.16662E-01 -0.11403E-01 -0.56978E-02 -0.18759E-03  0.47607E-02  0.88213E-02
  0.11688E-01  0.13167E-01  0.13291E-01  0.12415E-01  0.88452E-02  0.88380E-02
  0.93996E-02  0.10813E-01  0.12510E-01  0.13525E-01  0.13142E-01  0.11175E-01
  0.78565E-02  0.35685E-02 -0.13345E-02 -0.64554E-02 -0.11045E-01 -0.13918E-01
 -0.14150E-01 -0.12280E-01 -0.10685E-01 -0.12209E-01 -0.17973E-01 -0.26336E-01
 -0.33888E-01 -0.37507E-01 -0.35938E-01 -0.30300E-01 -0.23532E-01 -0.18880E-01
 -0.17977E-01 -0.19817E-01 -0.21665E-01 -0.21172E-01 -0.17791E-01 -0.12484E-01
 -0.65308E-02 -0.77092E-03  0.43457E-02  0.84643E-02  0.11248E-01  0.12507E-01
  0.12388E-01  0.11476E-01  0.10029E-01  0.91233E-02  0.89208E-02  0.99562E-02
  0.11664E-01  0.12892E-01  0.12711E-01  0.10827E-01  0.74732E-02  0.30720E-02
 -0.19901E-02 -0.72532E-02 -0.11830E-01 -0.14408E-01 -0.14171E-01 -0.12114E-01
 -0.11200E-01 -0.14541E-01 -0.22915E-01 -0.33889E-01 -0.43271E-01 -0.47480E-01
 -0.45166E-01 -0.37641E-01 -0.28328E-01 -0.21202E-01 -0.18594E-01 -0.19789E-01
 -0.21795E-01 -0.21715E-01 -0.18583E-01 -0.13265E-01 -0.71603E-02 -0.12489E-02
  0.39498E-02  0.80552E-02  0.10712E-01  0.11749E-01  0.11429E-01  0.10534E-01
  0.10497E-01  0.92315E-02  0.87165E-02  0.95784E-02  0.11253E-01  0.12523E-01
  0.12383E-01  0.10500E-01  0.71046E-02  0.26311E-02 -0.25237E-02 -0.78724E-02
 -0.12473E-01 -0.14973E-01 -0.14617E-01 -0.12588E-01 -0.12062E-01 -0.16201E-01
 -0.25598E-01 -0.37507E-01 -0.47479E-01 -0.51828E-01 -0.49207E-01 -0.40993E-01
 -0.30748E-01 -0.22685E-01 -0.19383E-01 -0.20245E-01 -0.22204E-01 -0.22186E-01
 -0.19079E-01 -0.13712E-01 -0.75216E-02 -0.15354E-02  0.37041E-02  0.78071E-02
  0.10415E-01  0.11372E-01  0.10990E-01  0.10130E-01  0.10088E-01  0.91738E-02
  0.89530E-02  0.99308E-02  0.11532E-01  0.12623E-01  0.12299E-01  0.10284E-01
  0.68094E-02  0.22892E-02 -0.28970E-02 -0.82852E-02 -0.12976E-01 -0.15656E-01
 -0.15533E-01 -0.13643E-01 -0.12954E-01 -0.16516E-01 -0.25004E-01 -0.35937E-01
 -0.45165E-01 -0.49207E-01 -0.46787E-01 -0.39227E-01 -0.29911E-01 -0.22765E-01
 -0.20081E-01 -0.21126E-01 -0.22920E-01 -0.22609E-01 -0.19271E-01 -0.13795E-01
 -0.75763E-02 -0.15825E-02  0.36776E-02  0.78290E-02  0.10524E-01  0.11603E-01
  0.11336E-01  0.10504E-01  0.90392E-02  0.90046E-02  0.95104E-02  0.10792E-01
  0.12270E-01  0.13015E-01  0.12355E-01  0.10131E-01  0.65749E-02  0.20552E-02
 -0.30856E-02 -0.84482E-02 -0.13265E-01 -0.16340E-01 -0.16784E-01 -0.15207E-01
 -0.14004E-01 -0.15929E-01 -0.21942E-01 -0.30299E-01 -0.37640E-01 -0.40992E-01
 -0.39227E-01 -0.33492E-01 -0.26674E-01 -0.21938E-01 -0.20847E-01 -0.22368E-01
 -0.23796E-01 -0.22859E-01 -0.19089E-01 -0.13486E-01 -0.73182E-02 -0.13986E-02
  0.38400E-02  0.80532E-02  0.10916E-01  0.12257E-01  0.12235E-01  0.11432E-01
  0.77965E-02  0.87614E-02  0.10053E-01  0.11624E-01  0.12924E-01  0.13281E-01
  0.12288E-01  0.99041E-02  0.63409E-02  0.19118E-02 -0.30803E-02 -0.83147E-02
 -0.13212E-01 -0.16779E-01 -0.18062E-01 -0.17130E-01 -0.15572E-01 -0.15639E-01
 -0.18555E-01 -0.23530E-01 -0.28327E-01 -0.30748E-01 -0.29911E-01 -0.26674E-01
 -0.23137E-01 -0.21378E-01 -0.22032E-01 -0.23812E-01 -0.24520E-01 -0.22701E-01
 -0.18432E-01 -0.12774E-01 -0.67743E-02 -0.10391E-02  0.40859E-02  0.82877E-02
  0.11275E-01  0.12873E-01  0.13122E-01  0.12376E-01  0.66920E-02  0.84089E-02
  0.10232E-01  0.11926E-01  0.13018E-01  0.13070E-01  0.11882E-01  0.94838E-02
  0.60497E-02  0.18352E-02 -0.28867E-02 -0.78600E-02 -0.12702E-01 -0.16688E-01
 -0.18919E-01 -0.19019E-01 -0.17736E-01 -0.16640E-01 -0.17003E-01 -0.18880E-01
 -0.21201E-01 -0.22686E-01 -0.22766E-01 -0.21939E-01 -0.21379E-01 -0.22013E-01
 -0.23673E-01 -0.25057E-01 -0.24666E-01 -0.21887E-01 -0.17230E-01 -0.11680E-01
 -0.59954E-02 -0.57584E-03  0.43009E-02  0.83464E-02  0.11310E-01  0.13033E-01
  0.13482E-01  0.12826E-01  0.57744E-02  0.78574E-02  0.98669E-02  0.11507E-01
  0.12405E-01  0.12292E-01  0.11087E-01  0.88404E-02  0.56816E-02  0.18134E-02
 -0.25172E-02 -0.70943E-02 -0.11690E-01 -0.15860E-01 -0.18896E-01 -0.20216E-01
 -0.19909E-01 -0.18824E-01 -0.18001E-01 -0.17976E-01 -0.18594E-01 -0.19385E-01
 -0.20083E-01 -0.20849E-01 -0.22034E-01 -0.23675E-01 -0.25162E-01 -0.25466E-01
 -0.23824E-01 -0.20271E-01 -0.15497E-01 -0.10264E-01 -0.50392E-02 -0.66214E-04
  0.44170E-02  0.81454E-02  0.10912E-01  0.12590E-01  0.13116E-01  0.12558E-01
  0.48979E-02  0.70365E-02  0.89866E-02  0.10476E-01  0.11231E-01  0.11082E-01
  0.99954E-02  0.80226E-02  0.52565E-02  0.18510E-02 -0.19827E-02 -0.60535E-02
 -0.10220E-01 -0.14256E-01 -0.17715E-01 -0.20058E-01 -0.21027E-01 -0.20891E-01
 -0.20286E-01 -0.19817E-01 -0.19791E-01 -0.20247E-01 -0.21130E-01 -0.22372E-01
 -0.23815E-01 -0.25060E-01 -0.25467E-01 -0.24437E-01 -0.21791E-01 -0.17885E-01
 -0.13329E-01 -0.86048E-02 -0.39553E-02  0.45844E-03  0.44213E-02  0.77048E-02
  0.10147E-01  0.11646E-01  0.12140E-01  0.11653E-01  0.39164E-02  0.59471E-02
  0.77379E-02  0.90676E-02  0.97394E-02  0.96362E-02  0.87427E-02  0.71094E-02
  0.48117E-02  0.19576E-02 -0.12953E-02 -0.47831E-02 -0.83911E-02 -0.12011E-01
 -0.15420E-01 -0.18266E-01 -0.20233E-01 -0.21265E-01 -0.21609E-01 -0.21666E-01
 -0.21796E-01 -0.22207E-01 -0.22924E-01 -0.23801E-01 -0.24525E-01 -0.24670E-01
 -0.23827E-01 -0.21793E-01 -0.18698E-01 -0.14924E-01 -0.10870E-01 -0.67802E-02
 -0.27836E-02  0.98286E-03  0.43327E-02  0.70923E-02  0.91419E-02  0.10393E-01
  0.10784E-01  0.10328E-01  0.27907E-02  0.46553E-02  0.62764E-02  0.74776E-02
  0.81156E-02  0.81062E-02  0.74426E-02  0.61786E-02  0.43848E-02  0.21332E-02
 -0.48006E-03 -0.33325E-02 -0.63139E-02 -0.93463E-02 -0.12334E-01 -0.15107E-01
 -0.17449E-01 -0.19214E-01 -0.20406E-01 -0.21173E-01 -0.21717E-01 -0.22190E-01
 -0.22614E-01 -0.22865E-01 -0.22707E-01 -0.21893E-01 -0.20277E-01 -0.17889E-01
 -0.14927E-01 -0.11647E-01 -0.82506E-02 -0.48566E-02 -0.15642E-02  0.14956E-02
  0.41817E-02  0.63831E-02  0.80131E-02  0.89860E-02  0.92386E-02  0.87792E-02
  0.15747E-02  0.32582E-02  0.47268E-02  0.58353E-02  0.64787E-02  0.65970E-02
  0.61875E-02  0.53023E-02  0.40108E-02  0.23668E-02  0.41863E-03 -0.17610E-02
 -0.40800E-02 -0.64595E-02 -0.88409E-02 -0.11155E-01 -0.13298E-01 -0.15159E-01
 -0.16660E-01 -0.17790E-01 -0.18585E-01 -0.19083E-01 -0.19277E-01 -0.19096E-01
 -0.18440E-01 -0.17239E-01 -0.15505E-01 -0.13336E-01 -0.10875E-01 -0.82540E-02
 -0.55673E-02 -0.28971E-02 -0.34248E-03  0.19880E-02  0.40076E-02  0.56543E-02
  0.68594E-02  0.75389E-02  0.76321E-02  0.71420E-02  0.36019E-03  0.18631E-02
  0.31994E-02  0.42463E-02  0.49255E-02  0.51953E-02  0.50522E-02  0.45378E-02
  0.37179E-02  0.26446E-02  0.13463E-02 -0.14539E-03 -0.17757E-02 -0.34793E-02
 -0.52029E-02 -0.69061E-02 -0.85461E-02 -0.10066E-01 -0.11399E-01 -0.12483E-01
 -0.13267E-01 -0.13717E-01 -0.13802E-01 -0.13496E-01 -0.12785E-01 -0.11693E-01
 -0.10276E-01 -0.86164E-02 -0.67904E-02 -0.48644E-02 -0.29016E-02 -0.97552E-03
  0.83300E-03  0.24564E-02  0.38512E-02  0.49768E-02  0.57691E-02  0.61503E-02
  0.60695E-02  0.55261E-02 -0.75909E-03  0.57629E-03  0.18021E-02  0.28113E-02
  0.35417E-02  0.39644E-02  0.40760E-02  0.39068E-02  0.35141E-02  0.29529E-02
  0.22526E-02  0.14267E-02  0.49388E-03 -0.51479E-03 -0.15655E-02 -0.26313E-02
 -0.36922E-02 -0.47255E-02 -0.56916E-02 -0.65284E-02 -0.71618E-02 -0.75272E-02
 -0.75856E-02 -0.73307E-02 -0.67892E-02 -0.60119E-02 -0.50564E-02 -0.39721E-02
 -0.27993E-02 -0.15776E-02 -0.35274E-03  0.82715E-03  0.19203E-02  0.28973E-02
  0.37330E-02  0.43873E-02  0.47973E-02  0.48966E-02  0.46442E-02  0.40351E-02
 -0.17089E-02 -0.51503E-03  0.62358E-03  0.16087E-02  0.23843E-02  0.29320E-02
  0.32579E-02  0.33915E-02  0.33800E-02  0.32714E-02  0.30981E-02  0.28760E-02
  0.26090E-02  0.22935E-02  0.19223E-02  0.14893E-02  0.99029E-03  0.42714E-03
 -0.17775E-03 -0.76603E-03 -0.12495E-02 -0.15415E-02 -0.15938E-02 -0.14145E-02
 -0.10586E-02 -0.59788E-03 -0.89574E-04  0.43489E-03  0.96022E-03  0.14750E-02
  0.19704E-02  0.24432E-02  0.28898E-02  0.32981E-02  0.36413E-02  0.38778E-02
  0.39539E-02  0.38150E-02  0.34203E-02  0.27525E-02 -0.24489E-02 -0.13610E-02
 -0.28561E-03  0.67988E-03  0.14797E-02  0.21056E-02  0.25849E-02  0.29618E-02
  0.32785E-02  0.35651E-02  0.38459E-02  0.41441E-02  0.44669E-02  0.47891E-02
  0.50596E-02  0.52256E-02  0.52456E-02  0.50940E-02  0.47757E-02  0.43542E-02
  0.39510E-02  0.36977E-02  0.36640E-02  0.38199E-02  0.40606E-02  0.42720E-02
  0.43859E-02  0.43895E-02  0.43014E-02  0.41522E-02  0.39810E-02  0.38288E-02
  0.37162E-02  0.36320E-02  0.35450E-02  0.34226E-02  0.32290E-02  0.29161E-02
  0.24285E-02  0.17268E-02 -0.29657E-02 -0.19473E-02 -0.91446E-03  0.30673E-04
  0.83073E-03  0.14871E-02  0.20524E-02  0.25972E-02  0.31690E-02  0.37823E-02
  0.44452E-02  0.51786E-02  0.59909E-02  0.68429E-02  0.76521E-02  0.83281E-02
  0.87905E-02  0.89712E-02  0.88431E-02  0.84777E-02  0.80589E-02  0.78006E-02
  0.78127E-02  0.80281E-02  0.82555E-02  0.83091E-02  0.81050E-02  0.76631E-02
  0.70509E-02  0.63431E-02  0.56171E-02  0.49435E-02  0.43594E-02  0.38571E-02
  0.34112E-02  0.30050E-02  0.26191E-02  0.22017E-02  0.16732E-02  0.96723E-03
 -0.32406E-02 -0.22760E-02 -0.12839E-02 -0.37207E-03  0.40273E-03  0.10492E-02
  0.16395E-02  0.22705E-02  0.30062E-02  0.38589E-02  0.48240E-02  0.59083E-02
  0.71047E-02  0.83559E-02  0.95624E-02  0.10615E-01  0.11399E-01  0.11791E-01
  0.11718E-01  0.11267E-01  0.10719E-01  0.10408E-01  0.10504E-01  0.10885E-01
  0.11235E-01  0.11263E-01  0.10861E-01  0.10094E-01  0.90888E-02  0.79613E-02
  0.68101E-02  0.57234E-02  0.47567E-02  0.39202E-02  0.32044E-02  0.26060E-02
  0.21083E-02  0.16474E-02  0.11201E-02  0.43797E-03 -0.32267E-02 -0.23501E-02
 -0.14408E-02 -0.60533E-03  0.10518E-03  0.70410E-03  0.12717E-02  0.19203E-02
  0.27321E-02  0.37303E-02  0.49063E-02  0.62469E-02  0.77167E-02  0.92355E-02
  0.10695E-01  0.11976E-01  0.12932E-01  0.13381E-01  0.13208E-01  0.12534E-01
  0.11761E-01  0.11366E-01  0.11580E-01  0.12219E-01  0.12823E-01  0.12974E-01
  0.12526E-01  0.11581E-01  0.10327E-01  0.89216E-02  0.74766E-02  0.60912E-02
  0.48420E-02  0.37670E-02  0.28772E-02  0.21744E-02  0.16333E-02  0.11748E-02
  0.68278E-03  0.59754E-04 -0.28661E-02 -0.21757E-02 -0.14476E-02 -0.77222E-03
 -0.18797E-03  0.32158E-03  0.83266E-03  0.14564E-02  0.22829E-02  0.33468E-02
  0.46402E-02  0.61308E-02  0.77541E-02  0.94102E-02  0.10984E-01  0.12350E-01
  0.13330E-01  0.13702E-01  0.13342E-01  0.12423E-01  0.11445E-01  0.10985E-01
  0.11310E-01  0.12190E-01  0.13062E-01  0.13412E-01  0.13041E-01  0.12062E-01
  0.10706E-01  0.91616E-02  0.75567E-02  0.59967E-02  0.45754E-02  0.33575E-02
  0.23746E-02  0.16310E-02  0.10912E-02  0.66793E-03  0.24709E-03 -0.26245E-03
 -0.21344E-02 -0.17730E-02 -0.13646E-02 -0.96261E-03 -0.58348E-03 -0.20843E-03
  0.22355E-03  0.80346E-03  0.16115E-02  0.26841E-02  0.40122E-02  0.55486E-02
  0.72082E-02  0.88785E-02  0.10441E-01  0.11762E-01  0.12660E-01  0.12927E-01
  0.12477E-01  0.11519E-01  0.10555E-01  0.10127E-01  0.10476E-01  0.11381E-01
  0.12308E-01  0.12746E-01  0.12471E-01  0.11564E-01  0.10239E-01  0.86907E-02
  0.70546E-02  0.54403E-02  0.39524E-02  0.26753E-02  0.16580E-02  0.90974E-03
  0.39336E-03  0.28496E-04 -0.27948E-03 -0.60168E-03  0.94891E-03  0.76501E-04
 -0.77280E-03 -0.15386E-02 -0.21391E-02 -0.24936E-02 -0.25595E-02 -0.23352E-02
 -0.18333E-02 -0.10649E-02 -0.50288E-04  0.11638E-02  0.24993E-02  0.38560E-02
  0.51301E-02  0.62396E-02  0.71496E-02  0.78779E-02  0.84653E-02  0.89297E-02
  0.92473E-02  0.93864E-02  0.93568E-02  0.92103E-02  0.89806E-02  0.86301E-02
  0.80707E-02  0.72364E-02  0.61329E-02  0.48288E-02  0.34217E-02  0.20183E-02
  0.72393E-03 -0.37542E-03 -0.12306E-02 -0.18271E-02 -0.21658E-02 -0.22496E-02
 -0.20860E-02 -0.16981E-02  0.10398E-03 -0.73383E-03 -0.15337E-02 -0.21750E-02
 -0.25630E-02 -0.26605E-02 -0.24837E-02 -0.20622E-02 -0.14065E-02 -0.51233E-03
  0.61140E-03  0.19227E-02  0.33483E-02  0.48006E-02  0.61919E-02  0.74298E-02
  0.84009E-02  0.89850E-02  0.91250E-02  0.89135E-02  0.86018E-02  0.84807E-02
  0.86997E-02  0.91574E-02  0.95573E-02  0.95893E-02  0.91015E-02  0.81407E-02
  0.68624E-02  0.54173E-02  0.39116E-02  0.24325E-02  0.10717E-02 -0.91359E-04
 -0.10177E-02 -0.17107E-02 -0.21897E-02 -0.24568E-02 -0.24854E-02 -0.22446E-02
 -0.71896E-03 -0.15065E-02 -0.22591E-02 -0.27873E-02 -0.29753E-02 -0.28279E-02
 -0.24242E-02 -0.18311E-02 -0.10613E-02 -0.96358E-04  0.10701E-02  0.24087E-02
  0.38599E-02  0.53546E-02  0.68236E-02  0.81660E-02  0.91940E-02  0.96539E-02
  0.93901E-02  0.85585E-02  0.76625E-02  0.72909E-02  0.77192E-02  0.87023E-02
  0.96429E-02  0.99913E-02  0.95507E-02  0.84784E-02  0.70651E-02  0.55320E-02
  0.39890E-02  0.25033E-02  0.11486E-02 -0.10416E-04 -0.95212E-03 -0.17011E-02
 -0.22922E-02 -0.27211E-02 -0.29205E-02 -0.28014E-02 -0.14638E-02 -0.21255E-02
 -0.27640E-02 -0.31535E-02 -0.31709E-02 -0.28511E-02 -0.23102E-02 -0.16328E-02
 -0.82878E-03  0.13005E-03  0.12608E-02  0.25473E-02  0.39442E-02  0.53962E-02
  0.68468E-02  0.81950E-02  0.92184E-02  0.95899E-02  0.90915E-02  0.79041E-02
  0.66652E-02  0.61273E-02  0.66341E-02  0.78602E-02  0.90482E-02  0.95333E-02
  0.91119E-02  0.80088E-02  0.65808E-02  0.50742E-02  0.35929E-02  0.21892E-02
  0.92247E-03 -0.15701E-03 -0.10411E-02 -0.17651E-02 -0.23718E-02 -0.28570E-02
 -0.31366E-02 -0.30930E-02 -0.20498E-02 -0.24969E-02 -0.29336E-02 -0.31516E-02
 -0.30460E-02 -0.26625E-02 -0.21124E-02 -0.14643E-02 -0.71782E-03  0.15450E-03
  0.11673E-02  0.23105E-02  0.35504E-02  0.48395E-02  0.61267E-02  0.73215E-02
  0.82170E-02  0.84950E-02  0.79312E-02  0.66912E-02  0.54001E-02  0.48033E-02
  0.52402E-02  0.63874E-02  0.75044E-02  0.79581E-02  0.75726E-02  0.65769E-02
  0.53082E-02  0.39870E-02  0.27006E-02  0.14924E-02  0.40984E-03 -0.50891E-03
 -0.12582E-02 -0.18646E-02 -0.23653E-02 -0.27659E-02 -0.30035E-02 -0.29784E-02
 -0.23939E-02 -0.25813E-02 -0.27708E-02 -0.28148E-02 -0.26450E-02 -0.22996E-02
 -0.18499E-02 -0.13265E-02 -0.71792E-03 -0.10418E-04  0.79606E-03  0.16924E-02
  0.26561E-02  0.36466E-02  0.46140E-02  0.54838E-02  0.60980E-02  0.62101E-02
  0.56416E-02  0.45257E-02  0.33720E-02  0.27918E-02  0.30657E-02  0.39343E-02
  0.48035E-02  0.51711E-02  0.49013E-02  0.41724E-02  0.32392E-02  0.22646E-02
  0.13158E-02  0.42929E-03 -0.35997E-03 -0.10272E-02 -0.15633E-02 -0.19725E-02
 -0.22727E-02 -0.24805E-02 -0.25782E-02 -0.25187E-02 -0.24507E-02 -0.23924E-02
 -0.23524E-02 -0.22576E-02 -0.20781E-02 -0.18331E-02 -0.15452E-02 -0.12086E-02
 -0.80897E-03 -0.34971E-03  0.15579E-03  0.70087E-03  0.12743E-02  0.18422E-02
  0.23549E-02  0.27532E-02  0.29379E-02  0.27603E-02  0.21184E-02  0.11212E-02
  0.13393E-03 -0.41121E-03 -0.31323E-03  0.25520E-03  0.89039E-03  0.12464E-02
  0.12179E-02  0.90340E-03  0.45172E-03 -0.40329E-04 -0.52642E-03 -0.97560E-03
 -0.13646E-02 -0.16826E-02 -0.19202E-02 -0.20636E-02 -0.21101E-02 -0.20793E-02
 -0.19945E-02 -0.18658E-02 -0.22172E-02 -0.19587E-02 -0.17448E-02 -0.15644E-02
 -0.14139E-02 -0.12938E-02 -0.11929E-02 -0.10893E-02 -0.97146E-03 -0.84927E-03
 -0.73579E-03 -0.63245E-03 -0.54531E-03 -0.50563E-03 -0.55964E-03 -0.74804E-03
 -0.11137E-02 -0.17124E-02 -0.25651E-02 -0.35696E-02 -0.44788E-02 -0.50163E-02
 -0.50517E-02 -0.46808E-02 -0.41427E-02 -0.36558E-02 -0.33121E-02 -0.30935E-02
 -0.29499E-02 -0.28482E-02 -0.27670E-02 -0.26837E-02 -0.25812E-02 -0.24559E-02
 -0.23042E-02 -0.21119E-02 -0.18694E-02 -0.15942E-02 -0.13271E-02 -0.11136E-02
 -0.17071E-02 -0.12922E-02 -0.96213E-03 -0.74658E-03 -0.65347E-03 -0.67152E-03
 -0.77984E-03 -0.95804E-03 -0.11953E-02 -0.14911E-02 -0.18468E-02 -0.22623E-02
 -0.27482E-02 -0.33338E-02 -0.40502E-02 -0.49088E-02 -0.59026E-02 -0.70162E-02
 -0.82074E-02 -0.93684E-02 -0.10324E-01 -0.10901E-01 -0.11012E-01 -0.10701E-01
 -0.10099E-01 -0.93455E-02 -0.85332E-02 -0.77054E-02 -0.68866E-02 -0.60998E-02
 -0.53581E-02 -0.46565E-02 -0.39831E-02 -0.33332E-02 -0.27086E-02 -0.21088E-02
 -0.15360E-02 -0.10083E-02 -0.56451E-03 -0.25655E-03 -0.93328E-03 -0.39022E-03
  0.12283E-04  0.22255E-03  0.22940E-03  0.46515E-04 -0.31005E-03 -0.82525E-03
 -0.14804E-02 -0.22576E-02 -0.31492E-02 -0.41603E-02 -0.53058E-02 -0.66006E-02
 -0.80454E-02 -0.96168E-02 -0.11271E-01 -0.12949E-01 -0.14568E-01 -0.16008E-01
 -0.17123E-01 -0.17783E-01 -0.17922E-01 -0.17553E-01 -0.16755E-01 -0.15635E-01
 -0.14297E-01 -0.12826E-01 -0.11293E-01 -0.97628E-02 -0.82834E-02 -0.68798E-02
 -0.55557E-02 -0.43095E-02 -0.31449E-02 -0.20744E-02 -0.11185E-02 -0.30436E-03
  0.33428E-03  0.75568E-03  0.83511E-04  0.73750E-03  0.11841E-02  0.13596E-02
  0.12490E-02  0.86014E-03  0.20290E-03 -0.70403E-03 -0.18281E-02 -0.31411E-02
 -0.46367E-02 -0.63228E-02 -0.82008E-02 -0.10255E-01 -0.12453E-01 -0.14751E-01
 -0.17084E-01 -0.19367E-01 -0.21483E-01 -0.23289E-01 -0.24638E-01 -0.25415E-01
 -0.25553E-01 -0.25052E-01 -0.23969E-01 -0.22409E-01 -0.20497E-01 -0.18357E-01
 -0.16094E-01 -0.13796E-01 -0.11533E-01 -0.93576E-02 -0.73046E-02 -0.53921E-02
 -0.36306E-02 -0.20364E-02 -0.64121E-03  0.51323E-03  0.13883E-02  0.19520E-02
  0.12970E-02  0.20496E-02  0.25248E-02  0.26491E-02  0.23960E-02  0.17608E-02
  0.75277E-03 -0.59550E-03 -0.22381E-02 -0.41466E-02 -0.63171E-02 -0.87428E-02
 -0.11393E-01 -0.14221E-01 -0.17186E-01 -0.20235E-01 -0.23282E-01 -0.26197E-01
 -0.28819E-01 -0.30988E-01 -0.32567E-01 -0.33456E-01 -0.33599E-01 -0.32977E-01
 -0.31620E-01 -0.29617E-01 -0.27109E-01 -0.24262E-01 -0.21232E-01 -0.18140E-01
 -0.15069E-01 -0.12083E-01 -0.92420E-02 -0.65969E-02 -0.41801E-02 -0.20113E-02
 -0.12460E-03  0.14237E-02  0.25793E-02  0.33112E-02  0.26300E-02  0.34739E-02
  0.39758E-02  0.40467E-02  0.36374E-02  0.27266E-02  0.13289E-02 -0.50532E-03
 -0.27207E-02 -0.52885E-02 -0.81913E-02 -0.11389E-01 -0.14820E-01 -0.18437E-01
 -0.22202E-01 -0.26033E-01 -0.29774E-01 -0.33215E-01 -0.36165E-01 -0.38500E-01
 -0.40155E-01 -0.41099E-01 -0.41300E-01 -0.40709E-01 -0.39284E-01 -0.37033E-01
 -0.34050E-01 -0.30525E-01 -0.26691E-01 -0.22754E-01 -0.18843E-01 -0.15028E-01
 -0.11369E-01 -0.79422E-02 -0.48114E-02 -0.20151E-02  0.40732E-03  0.23884E-02
  0.38549E-02  0.47697E-02  0.39832E-02  0.49237E-02  0.54688E-02  0.54979E-02
  0.49262E-02  0.37174E-02  0.18975E-02 -0.46452E-03 -0.33049E-02 -0.65815E-02
 -0.10243E-01 -0.14215E-01 -0.18435E-01 -0.22870E-01 -0.27452E-01 -0.31989E-01
 -0.36187E-01 -0.39774E-01 -0.42618E-01 -0.44739E-01 -0.46224E-01 -0.47140E-01
 -0.47484E-01 -0.47170E-01 -0.46051E-01 -0.43985E-01 -0.40919E-01 -0.36969E-01
 -0.32420E-01 -0.27617E-01 -0.22821E-01 -0.18154E-01 -0.13672E-01 -0.94417E-02
 -0.55545E-02 -0.20843E-02  0.91015E-03  0.33510E-02  0.51480E-02  0.62515E-02
  0.52529E-02  0.63116E-02  0.69353E-02  0.69463E-02  0.62115E-02  0.46833E-02
  0.24090E-02 -0.51925E-03 -0.40215E-02 -0.80261E-02 -0.12441E-01 -0.17179E-01
 -0.22198E-01 -0.27451E-01 -0.32738E-01 -0.37664E-01 -0.41811E-01 -0.44979E-01
 -0.47263E-01 -0.48909E-01 -0.50130E-01 -0.51013E-01 -0.51540E-01 -0.51610E-01
 -0.51047E-01 -0.49592E-01 -0.46982E-01 -0.43113E-01 -0.38183E-01 -0.32643E-01
 -0.26964E-01 -0.21427E-01 -0.16121E-01 -0.11093E-01 -0.64378E-02 -0.22674E-02
  0.13267E-02  0.42503E-02  0.63938E-02  0.76859E-02  0.63566E-02  0.75448E-02
  0.82736E-02  0.82908E-02  0.74025E-02  0.55494E-02  0.28041E-02 -0.71019E-03
 -0.48820E-02 -0.95987E-02 -0.14740E-01 -0.20228E-01 -0.26030E-01 -0.31988E-01
 -0.37663E-01 -0.42458E-01 -0.46002E-01 -0.48413E-01 -0.50145E-01 -0.51601E-01
 -0.52894E-01 -0.53912E-01 -0.54522E-01 -0.54685E-01 -0.54392E-01 -0.53497E-01