       #
       # Generated by the Wannier90 code http://www.wannier.org
       # On  1Apr2018 at 06:58:10 
       #
CRYSTAL
PRIMVEC
   3.0715001   0.0000000   0.0000000
   0.0300198   3.0713534   0.0000000
   0.0300198   0.0297278   3.0712095
CONVVEC
   3.0715001   0.0000000   0.0000000
   0.0300198   3.0713534   0.0000000
   0.0300198   0.0297278   3.0712095
PRIMCOORD
     1  1
Sn      0.0000000   0.0000000   0.0000000


BEGIN_BLOCK_DATAGRID_3D
3D_field
BEGIN_DATAGRID_3D_UNKNOWN
    40    40    40
   -3.288117   -3.256135   -3.224770
   5.9894252   0.0000000   0.0000000
   0.0585386   5.9891391   0.0000000
   0.0585386   0.0579692   5.9888585
  0.12316E-02  0.40917E-03 -0.37890E-03 -0.57391E-03  0.29248E-04  0.12643E-02
  0.28826E-02  0.48026E-02  0.71197E-02  0.99523E-02  0.13298E-01  0.17009E-01
  0.20874E-01  0.24697E-01  0.28280E-01  0.31381E-01  0.33843E-01  0.35818E-01
  0.37715E-01  0.39726E-01  0.41437E-01  0.42087E-01  0.41328E-01  0.39605E-01
  0.37701E-01  0.35976E-01  0.34168E-01  0.31844E-01  0.28871E-01  0.25433E-01
  0.21780E-01  0.18097E-01  0.14554E-01  0.11348E-01  0.86287E-02  0.63981E-02
  0.45200E-02  0.28757E-02  0.15464E-02  0.81501E-03  0.44197E-03 -0.64717E-04
 -0.44330E-03 -0.14705E-03  0.96089E-03  0.26317E-02  0.45879E-02  0.67960E-02
  0.94334E-02  0.12678E-01  0.16544E-01  0.20878E-01  0.25470E-01  0.30157E-01
  0.34780E-01  0.39071E-01  0.42678E-01  0.45395E-01  0.47317E-01  0.48681E-01
  0.49551E-01  0.49794E-01  0.49358E-01  0.48411E-01  0.47113E-01  0.45338E-01
  0.42775E-01  0.39294E-01  0.35126E-01  0.30655E-01  0.26160E-01  0.21784E-01
  0.17664E-01  0.13991E-01  0.10917E-01  0.84243E-02  0.63197E-02  0.44054E-02
  0.27115E-02  0.15409E-02  0.32704E-03 -0.16949E-03 -0.51911E-03 -0.12177E-03
  0.11696E-02  0.30794E-02  0.53030E-02  0.77992E-02  0.10750E-01  0.14337E-01
  0.18584E-01  0.23354E-01  0.28461E-01  0.33770E-01  0.39153E-01  0.44311E-01
  0.48696E-01  0.51731E-01  0.53198E-01  0.53416E-01  0.53048E-01  0.52726E-01
  0.52746E-01  0.52930E-01  0.52682E-01  0.51292E-01  0.48372E-01  0.44112E-01
  0.39096E-01  0.33891E-01  0.28801E-01  0.23942E-01  0.19429E-01  0.15429E-01
  0.12067E-01  0.93092E-02  0.69608E-02  0.48289E-02  0.29573E-02  0.16733E-02
  0.69403E-03 -0.38457E-04 -0.66766E-03 -0.50913E-03  0.65537E-03  0.25842E-02
  0.49603E-02  0.76899E-02  0.10884E-01  0.14672E-01  0.19077E-01  0.24000E-01
  0.29291E-01  0.34824E-01  0.40466E-01  0.45888E-01  0.50423E-01  0.53253E-01
  0.53948E-01  0.52919E-01  0.51338E-01  0.50478E-01  0.50923E-01  0.52195E-01
  0.53066E-01  0.52344E-01  0.49573E-01  0.45156E-01  0.39899E-01  0.34466E-01
  0.29178E-01  0.24162E-01  0.19530E-01  0.15415E-01  0.11895E-01  0.89293E-02
  0.63769E-02  0.41270E-02  0.22875E-02  0.11985E-02  0.11776E-02  0.15053E-03
 -0.84091E-03 -0.10662E-02 -0.22906E-03  0.15054E-02  0.38421E-02  0.66290E-02
  0.98699E-02  0.13610E-01  0.17862E-01  0.22576E-01  0.27645E-01  0.32930E-01
  0.38257E-01  0.43279E-01  0.47315E-01  0.49507E-01  0.49373E-01  0.47390E-01
  0.44993E-01  0.43782E-01  0.44487E-01  0.46465E-01  0.48166E-01  0.48163E-01
  0.45961E-01  0.42016E-01  0.37163E-01  0.32056E-01  0.27029E-01  0.22249E-01
  0.17843E-01  0.13904E-01  0.10456E-01  0.74665E-02  0.48796E-02  0.26989E-02
  0.10986E-02  0.39674E-03  0.15388E-02  0.31935E-03 -0.92290E-03 -0.14976E-02
 -0.10715E-02  0.28083E-03  0.23249E-02  0.48815E-02  0.78612E-02  0.11226E-01
  0.14972E-01  0.19094E-01  0.23523E-01  0.28104E-01  0.32612E-01  0.36694E-01
  0.39757E-01  0.41075E-01  0.40259E-01  0.37807E-01  0.35133E-01  0.33818E-01
  0.34573E-01  0.36753E-01  0.38828E-01  0.39413E-01  0.38010E-01  0.34989E-01
  0.31048E-01  0.26748E-01  0.22419E-01  0.18272E-01  0.14452E-01  0.11013E-01
  0.79421E-02  0.52246E-02  0.28876E-02  0.10280E-02 -0.15233E-03 -0.39841E-03
  0.18126E-02  0.52923E-03 -0.81652E-03 -0.16529E-02 -0.16635E-02 -0.84514E-03
  0.64873E-03  0.26530E-02  0.50318E-02  0.76933E-02  0.10615E-01  0.13808E-01
  0.17223E-01  0.20698E-01  0.23984E-01  0.26757E-01  0.28572E-01  0.28929E-01
  0.27609E-01  0.25091E-01  0.22564E-01  0.21334E-01  0.21981E-01  0.23974E-01
  0.26054E-01  0.27070E-01  0.26560E-01  0.24729E-01  0.22052E-01  0.18943E-01
  0.15699E-01  0.12544E-01  0.96245E-02  0.69778E-02  0.45857E-02  0.24610E-02
  0.68421E-03 -0.60705E-03 -0.12303E-02 -0.10156E-02  0.22210E-02  0.91748E-03
 -0.48143E-03 -0.15510E-02 -0.20251E-02 -0.18523E-02 -0.11123E-02  0.70465E-04
  0.15645E-02  0.32640E-02  0.51225E-02  0.71278E-02  0.92199E-02  0.11243E-01
  0.12978E-01  0.14179E-01  0.14570E-01  0.13893E-01  0.12110E-01  0.96544E-02
  0.74175E-02  0.63373E-02  0.68268E-02  0.85105E-02  0.10494E-01  0.11927E-01
  0.12398E-01  0.11941E-01  0.10791E-01  0.91982E-02  0.73767E-02  0.55144E-02
  0.37407E-02  0.21070E-02  0.63016E-03 -0.64273E-03 -0.16145E-02 -0.21572E-02
 -0.21354E-02 -0.14569E-02  0.29788E-02  0.16042E-02  0.87347E-04 -0.12715E-02
 -0.22610E-02 -0.28095E-02 -0.29482E-02 -0.27566E-02 -0.23311E-02 -0.17656E-02
 -0.11352E-02 -0.50654E-03  0.28022E-04  0.33544E-03  0.26759E-03 -0.30886E-03
 -0.15033E-02 -0.33668E-02 -0.57836E-02 -0.83571E-02 -0.10447E-01 -0.11432E-01
 -0.11042E-01 -0.95115E-02 -0.74214E-02 -0.53737E-02 -0.37438E-02 -0.26497E-02
 -0.20583E-02 -0.18844E-02 -0.20247E-02 -0.23674E-02 -0.28101E-02 -0.32704E-02
 -0.36727E-02 -0.39334E-02 -0.39603E-02 -0.36595E-02 -0.29442E-02 -0.17750E-02
  0.41623E-02  0.26304E-02  0.88124E-03 -0.86656E-03 -0.24414E-02 -0.37655E-02
 -0.48411E-02 -0.57119E-02 -0.64409E-02 -0.71108E-02 -0.78257E-02 -0.87044E-02
 -0.98660E-02 -0.11413E-01 -0.13417E-01 -0.15903E-01 -0.18842E-01 -0.22119E-01
 -0.25488E-01 -0.28546E-01 -0.30795E-01 -0.31805E-01 -0.31391E-01 -0.29696E-01
 -0.27113E-01 -0.24107E-01 -0.21066E-01 -0.18241E-01 -0.15765E-01 -0.13690E-01
 -0.12018E-01 -0.10709E-01 -0.96918E-02 -0.88602E-02 -0.80916E-02 -0.72704E-02
 -0.63068E-02 -0.51324E-02 -0.36953E-02 -0.19881E-02  0.56926E-02  0.39384E-02
  0.18621E-02 -0.36553E-03 -0.25942E-02 -0.47353E-02 -0.67634E-02 -0.86968E-02
 -0.10588E-01 -0.12531E-01 -0.14656E-01 -0.17102E-01 -0.19989E-01 -0.23396E-01
 -0.27348E-01 -0.31800E-01 -0.36612E-01 -0.41520E-01 -0.46147E-01 -0.50036E-01
 -0.52730E-01 -0.53872E-01 -0.53314E-01 -0.51159E-01 -0.47723E-01 -0.43438E-01
 -0.38752E-01 -0.34049E-01 -0.29613E-01 -0.25614E-01 -0.22122E-01 -0.19136E-01
 -0.16602E-01 -0.14417E-01 -0.12443E-01 -0.10543E-01 -0.86071E-02 -0.65664E-02
 -0.43886E-02 -0.20927E-02  0.73901E-02  0.53880E-02  0.29387E-02  0.18127E-03
 -0.27415E-02 -0.57166E-02 -0.86803E-02 -0.11630E-01 -0.14632E-01 -0.17811E-01
 -0.21320E-01 -0.25296E-01 -0.29847E-01 -0.35042E-01 -0.40896E-01 -0.47317E-01
 -0.54050E-01 -0.60678E-01 -0.66685E-01 -0.71546E-01 -0.74798E-01 -0.76114E-01
 -0.75356E-01 -0.72613E-01 -0.68176E-01 -0.62486E-01 -0.56058E-01 -0.49414E-01
 -0.42996E-01 -0.37096E-01 -0.31839E-01 -0.27231E-01 -0.23219E-01 -0.19712E-01
 -0.16577E-01 -0.13658E-01 -0.10809E-01 -0.79364E-02 -0.50186E-02 -0.21058E-02
  0.90542E-02  0.68109E-02  0.39854E-02  0.69597E-03 -0.29101E-02 -0.66857E-02
 -0.10525E-01 -0.14406E-01 -0.18415E-01 -0.22710E-01 -0.27467E-01 -0.32831E-01
 -0.38916E-01 -0.45802E-01 -0.53488E-01 -0.61802E-01 -0.70349E-01 -0.78555E-01
 -0.85791E-01 -0.91491E-01 -0.95213E-01 -0.96666E-01 -0.95732E-01 -0.92479E-01
 -0.87166E-01 -0.80213E-01 -0.72176E-01 -0.63689E-01 -0.55352E-01 -0.47604E-01
 -0.40658E-01 -0.34541E-01 -0.29190E-01 -0.24500E-01 -0.20332E-01 -0.16503E-01
 -0.12830E-01 -0.91959E-02 -0.55838E-02 -0.20714E-02  0.10531E-01  0.80732E-02
  0.48897E-02  0.10979E-02 -0.31286E-02 -0.76037E-02 -0.12193E-01 -0.16869E-01
 -0.21727E-01 -0.26942E-01 -0.32714E-01 -0.39232E-01 -0.46656E-01 -0.55074E-01
 -0.64416E-01 -0.74377E-01 -0.84407E-01 -0.93808E-01 -0.10189E+00 -0.10809E+00
 -0.11205E+00 -0.11356E+00 -0.11254E+00 -0.10900E+00 -0.10313E+00 -0.95278E-01
 -0.85992E-01 -0.75977E-01 -0.65963E-01 -0.56541E-01 -0.48058E-01 -0.40615E-01
 -0.34147E-01 -0.28506E-01 -0.23500E-01 -0.18918E-01 -0.14560E-01 -0.10293E-01
 -0.60936E-02 -0.20462E-02  0.11703E-01  0.90677E-02  0.55495E-02  0.12975E-02
 -0.34504E-02 -0.84580E-02 -0.13586E-01 -0.18832E-01 -0.24304E-01 -0.30174E-01
 -0.36660E-01 -0.44022E-01 -0.52482E-01 -0.62109E-01 -0.72716E-01 -0.83844E-01
 -0.94819E-01 -0.10487E+00 -0.11327E+00 -0.11952E+00 -0.12340E+00 -0.12485E+00
 -0.12387E+00 -0.12039E+00 -0.11441E+00 -0.10614E+00 -0.96114E-01 -0.85080E-01
 -0.73857E-01 -0.63156E-01 -0.53462E-01 -0.44994E-01 -0.37712E-01 -0.31410E-01
 -0.25827E-01 -0.20724E-01 -0.15904E-01 -0.11218E-01 -0.65989E-02 -0.21106E-02
  0.12380E-01  0.96137E-02  0.58030E-02  0.11575E-02 -0.39758E-02 -0.92841E-02
 -0.14641E-01 -0.20112E-01 -0.25849E-01 -0.32025E-01 -0.38870E-01 -0.46687E-01
 -0.55735E-01 -0.66034E-01 -0.77282E-01 -0.88913E-01 -0.10018E+00 -0.11025E+00
 -0.11835E+00 -0.12403E+00 -0.12733E+00 -0.12854E+00 -0.12781E+00 -0.12489E+00
 -0.11942E+00 -0.11136E+00 -0.10118E+00 -0.89740E-01 -0.77947E-01 -0.66581E-01
 -0.56219E-01 -0.47177E-01 -0.39465E-01 -0.32850E-01 -0.27025E-01 -0.21743E-01
 -0.16803E-01 -0.12006E-01 -0.71961E-02 -0.23892E-02  0.12235E-01  0.94115E-02
  0.54185E-02  0.52913E-03 -0.47759E-02 -0.10081E-01 -0.15271E-01 -0.20514E-01
 -0.26058E-01 -0.32106E-01 -0.38883E-01 -0.46682E-01 -0.55734E-01 -0.66004E-01
 -0.77134E-01 -0.88534E-01 -0.99415E-01 -0.10880E+00 -0.11580E+00 -0.12006E+00
 -0.12211E+00 -0.12282E+00 -0.12259E+00 -0.12092E+00 -0.11682E+00 -0.10976E+00
 -0.10013E+00 -0.88945E-01 -0.77291E-01 -0.66004E-01 -0.55670E-01 -0.46643E-01
 -0.38977E-01 -0.32462E-01 -0.26809E-01 -0.21784E-01 -0.17162E-01 -0.12636E-01
 -0.79217E-02 -0.29873E-02  0.10980E-01  0.82293E-02  0.42827E-02 -0.55549E-03
 -0.56977E-02 -0.10628E-01 -0.15231E-01 -0.19779E-01 -0.24643E-01 -0.30087E-01
 -0.36314E-01 -0.43546E-01 -0.51938E-01 -0.61414E-01 -0.71644E-01 -0.82079E-01
 -0.91866E-01 -0.99826E-01 -0.10489E+00 -0.10692E+00 -0.10708E+00 -0.10703E+00
 -0.10752E+00 -0.10770E+00 -0.10577E+00 -0.10056E+00 -0.92258E-01 -0.82069E-01
 -0.71303E-01 -0.60876E-01 -0.51335E-01 -0.42989E-01 -0.35911E-01 -0.29962E-01
 -0.24925E-01 -0.20603E-01 -0.16719E-01 -0.12840E-01 -0.85535E-02 -0.38004E-02
  0.86904E-02  0.62161E-02  0.26652E-02 -0.16835E-02 -0.62208E-02 -0.10387E-01
 -0.14062E-01 -0.17576E-01 -0.21386E-01 -0.25803E-01 -0.30996E-01 -0.37092E-01
 -0.44153E-01 -0.52095E-01 -0.60670E-01 -0.69402E-01 -0.77396E-01 -0.83317E-01
 -0.86027E-01 -0.85633E-01 -0.83877E-01 -0.83062E-01 -0.84218E-01 -0.86197E-01
 -0.86605E-01 -0.83679E-01 -0.77373E-01 -0.68950E-01 -0.59869E-01 -0.51093E-01
 -0.43095E-01 -0.36096E-01 -0.30165E-01 -0.25239E-01 -0.21202E-01 -0.17899E-01
 -0.15019E-01 -0.12048E-01 -0.85148E-02 -0.43621E-02  0.58894E-02  0.39524E-02
  0.12017E-02 -0.21629E-02 -0.56312E-02 -0.87069E-02 -0.11274E-01 -0.13635E-01
 -0.16223E-01 -0.19335E-01 -0.23092E-01 -0.27539E-01 -0.32672E-01 -0.38424E-01
 -0.44638E-01 -0.50948E-01 -0.56552E-01 -0.60221E-01 -0.60974E-01 -0.59086E-01
 -0.56396E-01 -0.55217E-01 -0.56568E-01 -0.59321E-01 -0.61097E-01 -0.60066E-01
 -0.56025E-01 -0.50054E-01 -0.43463E-01 -0.37097E-01 -0.31318E-01 -0.26257E-01
 -0.21964E-01 -0.18435E-01 -0.15635E-01 -0.13456E-01 -0.11615E-01 -0.96383E-02
 -0.71138E-02 -0.40065E-02  0.31766E-02  0.20316E-02  0.43968E-03 -0.15129E-02
 -0.35327E-02 -0.53057E-02 -0.67395E-02 -0.80113E-02 -0.93956E-02 -0.11081E-01
 -0.13133E-01 -0.15550E-01 -0.18305E-01 -0.21354E-01 -0.24619E-01 -0.27900E-01
 -0.30713E-01 -0.32326E-01 -0.32180E-01 -0.30516E-01 -0.28519E-01 -0.27636E-01
 -0.28483E-01 -0.30353E-01 -0.31778E-01 -0.31615E-01 -0.29703E-01 -0.26657E-01
 -0.23232E-01 -0.19907E-01 -0.16870E-01 -0.14185E-01 -0.11887E-01 -0.99982E-02
 -0.85216E-02 -0.74037E-02 -0.64709E-02 -0.54416E-02 -0.40798E-02 -0.23783E-02
  0.72435E-03  0.53912E-03  0.32926E-03  0.49788E-04 -0.29893E-03 -0.66624E-03
 -0.99886E-03 -0.12808E-02 -0.15278E-02 -0.17573E-02 -0.19709E-02 -0.21547E-02
 -0.22858E-02 -0.23405E-02 -0.23044E-02 -0.21830E-02 -0.20043E-02 -0.18142E-02
 -0.16608E-02 -0.15674E-02 -0.15089E-02 -0.14212E-02 -0.12524E-02 -0.10161E-02
 -0.79380E-03 -0.67785E-03 -0.70309E-03 -0.82602E-03 -0.96134E-03 -0.10379E-02
 -0.10301E-02 -0.95161E-03 -0.83061E-03 -0.69001E-03 -0.54196E-03 -0.39107E-03
 -0.24042E-03 -0.96874E-04  0.28429E-04  0.12721E-03 -0.17652E-02 -0.96876E-03
  0.23509E-03  0.16660E-02  0.30217E-02  0.40814E-02  0.48590E-02  0.55701E-02
  0.64648E-02  0.76993E-02  0.93338E-02  0.11392E-01  0.13893E-01  0.16843E-01
  0.20203E-01  0.23764E-01  0.26987E-01  0.29043E-01  0.29274E-01  0.27866E-01
  0.26042E-01  0.25345E-01  0.26473E-01  0.28689E-01  0.30390E-01  0.30300E-01
  0.28228E-01  0.24883E-01  0.21178E-01  0.17710E-01  0.14702E-01  0.12183E-01
  0.10134E-01  0.85315E-02  0.73557E-02  0.65386E-02  0.58952E-02  0.51317E-02
  0.40016E-02  0.24974E-02 -0.45534E-02 -0.29061E-02 -0.46340E-03  0.24735E-02
  0.53646E-02  0.77874E-02  0.97286E-02  0.11542E-01  0.13655E-01  0.16337E-01
  0.19704E-01  0.23818E-01  0.28718E-01  0.34396E-01  0.40748E-01  0.47420E-01
  0.53552E-01  0.57815E-01  0.59113E-01  0.57649E-01  0.55252E-01  0.54268E-01
  0.55736E-01  0.58498E-01  0.60127E-01  0.58780E-01  0.54313E-01  0.47923E-01
  0.41035E-01  0.34557E-01  0.28845E-01  0.23980E-01  0.19956E-01  0.16730E-01
  0.14242E-01  0.12363E-01  0.10785E-01  0.90291E-02  0.66976E-02  0.37932E-02
 -0.73899E-02 -0.51249E-02 -0.17869E-02  0.22452E-02  0.63166E-02  0.99189E-02
  0.13025E-01  0.16024E-01  0.19382E-01  0.23399E-01  0.28238E-01  0.34039E-01
  0.40898E-01  0.48788E-01  0.57527E-01  0.66673E-01  0.75292E-01  0.81945E-01
  0.85364E-01  0.85552E-01  0.84181E-01  0.83512E-01  0.84541E-01  0.86112E-01
  0.85887E-01  0.82222E-01  0.75219E-01  0.66269E-01  0.56893E-01  0.48055E-01
  0.40182E-01  0.33428E-01  0.27799E-01  0.23196E-01  0.19483E-01  0.16481E-01
  0.13849E-01  0.11069E-01  0.77095E-02  0.37830E-02 -0.96240E-02 -0.69966E-02
 -0.31786E-02  0.14398E-02  0.62247E-02  0.10694E-01  0.14808E-01  0.18896E-01
  0.23347E-01  0.28426E-01  0.34341E-01  0.41326E-01  0.49551E-01  0.58983E-01
  0.69358E-01  0.80178E-01  0.90579E-01  0.99291E-01  0.10511E+00  0.10776E+00
  0.10829E+00  0.10825E+00  0.10837E+00  0.10778E+00  0.10486E+00  0.98634E-01
  0.89489E-01  0.78737E-01  0.67711E-01  0.57285E-01  0.47934E-01  0.39884E-01
  0.33144E-01  0.27537E-01  0.22836E-01  0.18824E-01  0.15199E-01  0.11526E-01
  0.74389E-02  0.29594E-02 -0.10752E-01 -0.79715E-02 -0.40391E-02  0.70703E-03
  0.57496E-02  0.10697E-01  0.15490E-01  0.20345E-01  0.25527E-01  0.31255E-01
  0.37769E-01  0.45373E-01  0.54301E-01  0.64532E-01  0.75756E-01  0.87435E-01
  0.98791E-01  0.10879E+00  0.11641E+00  0.12118E+00  0.12344E+00  0.12399E+00
  0.12318E+00  0.12055E+00  0.11531E+00  0.10717E+00  0.96697E-01  0.84999E-01
  0.73149E-01  0.61921E-01  0.51828E-01  0.43135E-01  0.35829E-01  0.29668E-01
  0.24357E-01  0.19658E-01  0.15330E-01  0.11067E-01  0.66189E-02  0.20224E-02
 -0.10774E-01 -0.79799E-02 -0.41698E-02  0.39988E-03  0.53558E-02  0.10403E-01
  0.15456E-01  0.20617E-01  0.26059E-01  0.31973E-01  0.38610E-01  0.46289E-01
  0.55261E-01  0.65541E-01  0.76841E-01  0.88626E-01  0.10017E+00  0.11060E+00
  0.11906E+00  0.12498E+00  0.12827E+00  0.12914E+00  0.12769E+00  0.12377E+00
  0.11721E+00  0.10815E+00  0.97228E-01  0.85360E-01  0.73436E-01  0.62172E-01
  0.52069E-01  0.43368E-01  0.36017E-01  0.29754E-01  0.24273E-01  0.19331E-01
  0.14726E-01  0.10258E-01  0.57923E-02  0.13875E-02 -0.10052E-01 -0.73275E-02
 -0.37517E-02  0.49236E-03  0.51464E-02  0.99843E-02  0.14899E-01  0.19919E-01
  0.25173E-01  0.30853E-01  0.37199E-01  0.44481E-01  0.52918E-01  0.62563E-01
  0.73217E-01  0.84418E-01  0.95492E-01  0.10565E+00  0.11412E+00  0.12032E+00
  0.12394E+00  0.12488E+00  0.12312E+00  0.11869E+00  0.11173E+00  0.10260E+00
  0.91940E-01  0.80556E-01  0.69242E-01  0.58650E-01  0.49198E-01  0.41041E-01
  0.34093E-01  0.28127E-01  0.22882E-01  0.18125E-01  0.13664E-01  0.93520E-02
  0.51371E-02  0.10986E-02 -0.89435E-02 -0.63492E-02 -0.30545E-02  0.79742E-03
  0.50149E-02  0.94148E-02  0.13884E-01  0.18424E-01  0.23154E-01  0.28267E-01
  0.33976E-01  0.40480E-01  0.47936E-01  0.56419E-01  0.65836E-01  0.75852E-01
  0.85891E-01  0.95233E-01  0.10316E+00  0.10909E+00  0.11261E+00  0.11348E+00
  0.11165E+00  0.10722E+00  0.10046E+00  0.91843E-01  0.81997E-01  0.71661E-01
  0.61547E-01  0.52196E-01  0.43897E-01  0.36704E-01  0.30522E-01  0.25186E-01
  0.20499E-01  0.16252E-01  0.12251E-01  0.83751E-02  0.46060E-02  0.10301E-02
 -0.76500E-02 -0.52342E-02 -0.22525E-02  0.11606E-02  0.48426E-02  0.86419E-02
  0.12463E-01  0.16307E-01  0.20285E-01  0.24576E-01  0.29364E-01  0.34794E-01
  0.40977E-01  0.47986E-01  0.55795E-01  0.64197E-01  0.72751E-01  0.80854E-01
  0.87855E-01  0.93171E-01  0.96345E-01  0.97091E-01  0.95331E-01  0.91204E-01
  0.85049E-01  0.77366E-01  0.68774E-01  0.59933E-01  0.51433E-01  0.43673E-01
  0.36821E-01  0.30871E-01  0.25739E-01  0.21305E-01  0.17417E-01  0.13891E-01
  0.10554E-01  0.72990E-02  0.41139E-02  0.10683E-02 -0.62964E-02 -0.40943E-02
 -0.14492E-02  0.14912E-02  0.45717E-02  0.76697E-02  0.10722E-01  0.13740E-01
  0.16814E-01  0.20093E-01  0.23737E-01  0.27880E-01  0.32621E-01  0.38019E-01
  0.44073E-01  0.50654E-01  0.57461E-01  0.64037E-01  0.69835E-01  0.74312E-01
  0.77002E-01  0.77595E-01  0.76003E-01  0.72381E-01  0.67094E-01  0.60648E-01
  0.53610E-01  0.46528E-01  0.39840E-01  0.33813E-01  0.28541E-01  0.24003E-01
  0.20126E-01  0.16801E-01  0.13885E-01  0.11218E-01  0.86635E-02  0.61364E-02
  0.36170E-02  0.11432E-02 -0.50367E-02 -0.30604E-02 -0.74820E-03  0.17218E-02
  0.41859E-02  0.65424E-02  0.87614E-02  0.10869E-01  0.12938E-01  0.15085E-01
  0.17454E-01  0.20184E-01  0.23383E-01  0.27115E-01  0.31383E-01  0.36112E-01
  0.41114E-01  0.46081E-01  0.50593E-01  0.54171E-01  0.56353E-01  0.56805E-01
  0.55422E-01  0.52371E-01  0.48039E-01  0.42928E-01  0.37535E-01  0.32276E-01
  0.27441E-01  0.23188E-01  0.19564E-01  0.16542E-01  0.14043E-01  0.11947E-01
  0.10108E-01  0.83889E-02  0.66865E-02  0.49351E-02  0.31020E-02  0.11966E-02
 -0.40441E-02 -0.22747E-02 -0.24884E-03  0.18016E-02  0.36842E-02  0.53057E-02
  0.66651E-02  0.78123E-02  0.88234E-02  0.97993E-02  0.10864E-01  0.12146E-01
  0.13758E-01  0.15782E-01  0.18260E-01  0.21180E-01  0.24465E-01  0.27948E-01
  0.31337E-01  0.34202E-01  0.36037E-01  0.36423E-01  0.35210E-01  0.32597E-01
  0.29054E-01  0.25125E-01  0.21264E-01  0.17757E-01  0.14751E-01  0.12293E-01
  0.10370E-01  0.89145E-02  0.78261E-02  0.69802E-02  0.62499E-02  0.55223E-02
  0.47082E-02  0.37386E-02  0.25650E-02  0.11794E-02 -0.34475E-02 -0.18296E-02
 -0.32804E-06  0.17173E-02  0.30790E-02  0.39940E-02  0.44948E-02  0.46702E-02
  0.46247E-02  0.44632E-02  0.42814E-02  0.41663E-02  0.42139E-02  0.45376E-02
  0.52492E-02  0.64369E-02  0.81582E-02  0.10408E-01  0.13018E-01  0.15555E-01
  0.17358E-01  0.17804E-01  0.16647E-01  0.14175E-01  0.11057E-01  0.79933E-02
  0.54382E-02  0.35515E-02  0.23126E-02  0.16354E-02  0.14070E-02  0.14937E-02
  0.17634E-02  0.21111E-02  0.24546E-02  0.27091E-02  0.27786E-02  0.25691E-02
  0.20077E-02  0.10706E-02 -0.32709E-02 -0.17248E-02  0.14756E-04  0.14896E-02
  0.23870E-02  0.26300E-02  0.23045E-02  0.15525E-02  0.51519E-03 -0.69488E-03
 -0.20146E-02 -0.34090E-02 -0.48083E-02 -0.60721E-02 -0.70158E-02 -0.74389E-02
 -0.71173E-02 -0.58526E-02 -0.36729E-02 -0.10706E-02  0.10198E-02  0.16462E-02
  0.41743E-03 -0.22256E-02 -0.52853E-02 -0.77963E-02 -0.92604E-02 -0.96686E-02
 -0.92504E-02 -0.82566E-02 -0.69055E-02 -0.53967E-02 -0.38849E-02 -0.24484E-02
 -0.11206E-02  0.41543E-04  0.93328E-03  0.14319E-02  0.14314E-02  0.87576E-03
 -0.33772E-02 -0.18485E-02 -0.13910E-03  0.11343E-02  0.15954E-02  0.12097E-02
  0.14142E-03 -0.14137E-02 -0.32985E-02 -0.54125E-02 -0.77234E-02 -0.10228E-01
 -0.12870E-01 -0.15497E-01 -0.17889E-01 -0.19759E-01 -0.20704E-01 -0.20286E-01
 -0.18372E-01 -0.15534E-01 -0.13028E-01 -0.12180E-01 -0.13535E-01 -0.16472E-01
 -0.19620E-01 -0.21710E-01 -0.22194E-01 -0.21240E-01 -0.19321E-01 -0.16861E-01
 -0.14154E-01 -0.11428E-01 -0.88400E-02 -0.64579E-02 -0.42901E-02 -0.23702E-02
 -0.79162E-03  0.31765E-03  0.81903E-03  0.60071E-03 -0.34713E-02 -0.19974E-02
 -0.37785E-03  0.63968E-03  0.65365E-03 -0.29432E-03 -0.19508E-02 -0.40907E-02
 -0.65875E-02 -0.93887E-02 -0.12489E-01 -0.15881E-01 -0.19500E-01 -0.23201E-01
 -0.26779E-01 -0.29905E-01 -0.32017E-01 -0.32447E-01 -0.30907E-01 -0.28017E-01
 -0.25279E-01 -0.24283E-01 -0.25675E-01 -0.28704E-01 -0.31733E-01 -0.33281E-01
 -0.32781E-01 -0.30569E-01 -0.27345E-01 -0.23682E-01 -0.19912E-01 -0.16234E-01
 -0.12793E-01 -0.96632E-02 -0.68630E-02 -0.44094E-02 -0.23526E-02 -0.78528E-03
  0.14045E-03  0.24564E-03 -0.32518E-02 -0.19695E-02 -0.61622E-03  0.12654E-04
 -0.44515E-03 -0.18489E-02 -0.38744E-02 -0.63131E-02 -0.91223E-02 -0.12330E-01
 -0.15952E-01 -0.19951E-01 -0.24234E-01 -0.28680E-01 -0.33133E-01 -0.37254E-01
 -0.40381E-01 -0.41697E-01 -0.40820E-01 -0.38361E-01 -0.35845E-01 -0.34870E-01
 -0.36069E-01 -0.38690E-01 -0.41100E-01 -0.41825E-01 -0.40331E-01 -0.37049E-01
 -0.32810E-01 -0.28277E-01 -0.23782E-01 -0.19473E-01 -0.15461E-01 -0.11843E-01
 -0.86704E-02 -0.59492E-02 -0.36627E-02 -0.18287E-02 -0.58084E-03 -0.15346E-03
 -0.26573E-02 -0.17017E-02 -0.77823E-03 -0.63137E-03 -0.15274E-02 -0.32305E-02
 -0.53864E-02 -0.78473E-02 -0.10683E-01 -0.14009E-01 -0.17853E-01 -0.22137E-01
 -0.26734E-01 -0.31546E-01 -0.36465E-01 -0.41164E-01 -0.44961E-01 -0.47049E-01
 -0.47073E-01 -0.45571E-01 -0.43812E-01 -0.43059E-01 -0.43792E-01 -0.45423E-01
 -0.46677E-01 -0.46367E-01 -0.44041E-01 -0.40088E-01 -0.35300E-01 -0.30337E-01
 -0.25512E-01 -0.20927E-01 -0.16665E-01 -0.12848E-01 -0.95684E-02 -0.68269E-02
 -0.45364E-02 -0.26259E-02 -0.11852E-02 -0.47675E-03  0.50363E-03 -0.66464E-04
 -0.73077E-03 -0.99116E-03 -0.60256E-03  0.35591E-03  0.17013E-02  0.33702E-02
  0.54448E-02  0.80182E-02  0.11055E-01  0.14364E-01  0.17697E-01  0.20832E-01
  0.23544E-01  0.25578E-01  0.26809E-01  0.27507E-01  0.28261E-01  0.29424E-01
  0.30632E-01  0.31090E-01  0.30425E-01  0.29116E-01  0.27986E-01  0.27348E-01
  0.26783E-01  0.25672E-01  0.23755E-01  0.21180E-01  0.18210E-01  0.15053E-01
  0.11907E-01  0.90052E-02  0.65327E-02  0.45231E-02  0.28728E-02  0.14910E-02
  0.45454E-03 -0.18521E-04  0.32001E-04 -0.40546E-03 -0.86798E-03 -0.80998E-03
 -0.17542E-04  0.13461E-02  0.30384E-02  0.50063E-02  0.73887E-02  0.10329E-01
  0.13809E-01  0.17638E-01  0.21576E-01  0.25429E-01  0.29009E-01  0.32022E-01
  0.34151E-01  0.35335E-01  0.35905E-01  0.36293E-01  0.36617E-01  0.36684E-01
  0.36387E-01  0.35931E-01  0.35536E-01  0.35037E-01  0.33944E-01  0.31907E-01
  0.28999E-01  0.25559E-01  0.21886E-01  0.18156E-01  0.14535E-01  0.11245E-01
  0.84657E-02  0.62065E-02  0.43152E-02  0.26482E-02  0.12696E-02  0.44658E-03
 -0.71725E-04 -0.70920E-03 -0.13201E-02 -0.12532E-02 -0.27289E-03  0.14010E-02
  0.34501E-02  0.57741E-02  0.84979E-02  0.11771E-01  0.15598E-01  0.19817E-01
  0.24223E-01  0.28665E-01  0.32999E-01  0.36930E-01  0.39985E-01  0.41776E-01
  0.42314E-01  0.42041E-01  0.41534E-01  0.41218E-01  0.41266E-01  0.41581E-01
  0.41766E-01  0.41218E-01  0.39463E-01  0.36479E-01  0.32661E-01  0.28486E-01
  0.24246E-01  0.20073E-01  0.16100E-01  0.12517E-01  0.94640E-02  0.69232E-02
  0.47344E-02  0.27730E-02  0.11522E-02  0.20696E-03  0.59392E-04 -0.97349E-03
 -0.19486E-02 -0.21053E-02 -0.11557E-02  0.66735E-03  0.29872E-02  0.56256E-02
  0.86356E-02  0.12129E-01  0.16126E-01  0.20521E-01  0.25154E-01  0.29900E-01
  0.34643E-01  0.39108E-01  0.42761E-01  0.45000E-01  0.45579E-01  0.44887E-01
  0.43802E-01  0.43201E-01  0.43467E-01  0.44275E-01  0.44778E-01  0.44100E-01
  0.41844E-01  0.38252E-01  0.33917E-01  0.29359E-01  0.24835E-01  0.20454E-01
  0.16333E-01  0.12616E-01  0.93878E-02  0.66089E-02  0.41563E-02  0.19819E-02
  0.27869E-03 -0.56663E-03  0.24681E-03 -0.11383E-02 -0.24540E-02 -0.28997E-02
 -0.21463E-02 -0.39209E-03  0.19837E-02  0.47444E-02  0.78509E-02  0.11349E-01
  0.15261E-01  0.19540E-01  0.24077E-01  0.28749E-01  0.33425E-01  0.37853E-01
  0.41527E-01  0.43804E-01  0.44320E-01  0.43399E-01  0.42020E-01  0.41263E-01
  0.41609E-01  0.42624E-01  0.43265E-01  0.42575E-01  0.40239E-01  0.36614E-01
  0.32324E-01  0.27845E-01  0.23409E-01  0.19134E-01  0.15139E-01  0.11519E-01
  0.83053E-02  0.54557E-02  0.29157E-02  0.73040E-03 -0.84889E-03 -0.14386E-02
  0.41178E-03 -0.11224E-02 -0.25937E-02 -0.32680E-02 -0.28136E-02 -0.13581E-02
  0.78404E-03  0.33687E-02  0.62840E-02  0.95030E-02  0.13036E-01  0.16881E-01
  0.20969E-01  0.25166E-01  0.29304E-01  0.33140E-01  0.36254E-01  0.38099E-01
  0.38347E-01  0.37279E-01  0.35820E-01  0.35021E-01  0.35354E-01  0.36388E-01
  0.37115E-01  0.36642E-01  0.34703E-01  0.31617E-01  0.27903E-01  0.23954E-01
  0.19991E-01  0.16164E-01  0.12594E-01  0.93405E-02  0.63949E-02  0.37364E-02
  0.13849E-02 -0.54331E-03 -0.17926E-02 -0.20479E-02  0.61605E-03 -0.87589E-03
 -0.23280E-02 -0.31537E-02 -0.30571E-02 -0.20839E-02 -0.44383E-03  0.16598E-02
  0.40827E-02  0.67440E-02  0.96285E-02  0.12746E-01  0.16047E-01  0.19394E-01
  0.22595E-01  0.25420E-01  0.27554E-01  0.28620E-01  0.28417E-01  0.27218E-01
  0.25800E-01  0.25035E-01  0.25317E-01  0.26289E-01  0.27119E-01  0.27065E-01
  0.25873E-01  0.23734E-01  0.21002E-01  0.17968E-01  0.14839E-01  0.11782E-01
  0.89150E-02  0.62751E-02  0.38521E-02  0.16606E-02 -0.22335E-03 -0.16549E-02
 -0.24222E-02 -0.23162E-02  0.99839E-03 -0.38672E-03 -0.17690E-02 -0.27296E-02
 -0.30274E-02 -0.26426E-02 -0.16842E-02 -0.29411E-03  0.13925E-02  0.32722E-02
  0.52968E-02  0.74489E-02  0.96737E-02  0.11842E-01  0.13779E-01  0.15302E-01
  0.16208E-01  0.16300E-01  0.15523E-01  0.14153E-01  0.12794E-01  0.12091E-01
  0.12329E-01  0.13250E-01  0.14248E-01  0.14755E-01  0.14513E-01  0.13571E-01
  0.12109E-01  0.10310E-01  0.83343E-02  0.63261E-02  0.43861E-02  0.25578E-02
  0.86456E-03 -0.63802E-03 -0.18485E-02 -0.26335E-02 -0.28444E-02 -0.23712E-02
  0.16805E-02  0.34824E-03 -0.10326E-02 -0.21797E-02 -0.29035E-02 -0.31491E-02
 -0.29580E-02 -0.24168E-02 -0.16274E-02 -0.68870E-03  0.31825E-03  0.13251E-02
  0.22501E-02  0.29856E-02  0.34154E-02  0.34352E-02  0.29565E-02  0.19330E-02
  0.44180E-03 -0.12329E-02 -0.26301E-02 -0.33035E-02 -0.30614E-02 -0.20722E-02
 -0.75028E-03  0.47686E-03  0.13437E-02  0.17702E-02  0.17869E-02  0.14640E-02
  0.88479E-03  0.13556E-03 -0.70587E-03 -0.15708E-02 -0.23841E-02 -0.30542E-02
 -0.34795E-02 -0.35576E-02 -0.31954E-02 -0.23481E-02  0.27043E-02  0.13304E-02
 -0.16337E-03 -0.15814E-02 -0.27717E-02 -0.36658E-02 -0.42695E-02 -0.46309E-02
 -0.48198E-02 -0.49255E-02 -0.50544E-02 -0.53197E-02 -0.58259E-02 -0.66562E-02
 -0.78663E-02 -0.94811E-02 -0.11485E-01 -0.13794E-01 -0.16216E-01 -0.18437E-01
 -0.20071E-01 -0.20792E-01 -0.20463E-01 -0.19196E-01 -0.17290E-01 -0.15102E-01
 -0.12933E-01 -0.10979E-01 -0.93417E-02 -0.80552E-02 -0.71132E-02 -0.64829E-02
 -0.61058E-02 -0.58925E-02 -0.57285E-02 -0.54979E-02 -0.51032E-02 -0.44672E-02
 -0.35328E-02 -0.22895E-02  0.40124E-02  0.25257E-02  0.82435E-03 -0.94488E-03
 -0.26509E-02 -0.42148E-02 -0.56159E-02 -0.68778E-02 -0.80586E-02 -0.92527E-02
 -0.10584E-01 -0.12183E-01 -0.14154E-01 -0.16568E-01 -0.19451E-01 -0.22776E-01
 -0.26437E-01 -0.30222E-01 -0.33816E-01 -0.36842E-01 -0.38923E-01 -0.39771E-01
 -0.39270E-01 -0.37507E-01 -0.34745E-01 -0.31340E-01 -0.27663E-01 -0.24033E-01
 -0.20684E-01 -0.17745E-01 -0.15261E-01 -0.13221E-01 -0.11569E-01 -0.10217E-01
 -0.90380E-02 -0.79033E-02 -0.67049E-02 -0.53686E-02 -0.38566E-02 -0.21812E-02
  0.54651E-02  0.38369E-02  0.18802E-02 -0.28827E-03 -0.25458E-02 -0.47940E-02
 -0.69793E-02 -0.91051E-02 -0.11238E-01 -0.13495E-01 -0.16016E-01 -0.18927E-01
 -0.22326E-01 -0.26285E-01 -0.30834E-01 -0.35910E-01 -0.41310E-01 -0.46683E-01
 -0.51589E-01 -0.55569E-01 -0.58215E-01 -0.59236E-01 -0.58512E-01 -0.56129E-01
 -0.52357E-01 -0.47590E-01 -0.42283E-01 -0.36885E-01 -0.31768E-01 -0.27165E-01
 -0.23161E-01 -0.19739E-01 -0.16835E-01 -0.14362E-01 -0.12201E-01 -0.10209E-01
 -0.82524E-02 -0.62412E-02 -0.41496E-02 -0.20148E-02  0.68939E-02  0.51334E-02
  0.29204E-02  0.34981E-03 -0.24545E-02 -0.53662E-02 -0.82944E-02 -0.11224E-01
 -0.14231E-01 -0.17459E-01 -0.21066E-01 -0.25184E-01 -0.29928E-01 -0.35385E-01
 -0.41580E-01 -0.48390E-01 -0.55502E-01 -0.62434E-01 -0.68634E-01 -0.73572E-01
 -0.76799E-01 -0.78001E-01 -0.77048E-01 -0.74032E-01 -0.69244E-01 -0.63125E-01
 -0.56208E-01 -0.49057E-01 -0.42177E-01 -0.35915E-01 -0.30420E-01 -0.25684E-01
 -0.21626E-01 -0.18140E-01 -0.15093E-01 -0.12323E-01 -0.96701E-02 -0.70306E-02
 -0.43872E-02 -0.18007E-02  0.81655E-02  0.63151E-02  0.38796E-02  0.93974E-03
 -0.23640E-02 -0.58703E-02 -0.94571E-02 -0.13096E-01 -0.16866E-01 -0.20918E-01
 -0.25429E-01 -0.30580E-01 -0.36532E-01 -0.43390E-01 -0.51131E-01 -0.59545E-01
 -0.68216E-01 -0.76572E-01 -0.83976E-01 -0.89825E-01 -0.93615E-01 -0.95002E-01
 -0.93842E-01 -0.90224E-01 -0.84466E-01 -0.77066E-01 -0.68648E-01 -0.59876E-01
 -0.51353E-01 -0.43528E-01 -0.36634E-01 -0.30709E-01 -0.25663E-01 -0.21337E-01
 -0.17550E-01 -0.14113E-01 -0.10857E-01 -0.76746E-02 -0.45491E-02 -0.15543E-02
  0.91731E-02  0.73098E-02  0.47132E-02  0.14563E-02 -0.22777E-02 -0.62718E-02
 -0.10378E-01 -0.14571E-01 -0.18931E-01 -0.23602E-01 -0.28784E-01 -0.34724E-01
 -0.41651E-01 -0.49669E-01 -0.58692E-01 -0.68434E-01 -0.78432E-01 -0.88060E-01
 -0.96580E-01 -0.10327E+00 -0.10757E+00 -0.10913E+00 -0.10781E+00 -0.10368E+00
 -0.97023E-01 -0.88412E-01 -0.78610E-01 -0.68416E-01 -0.58509E-01 -0.49381E-01
 -0.41327E-01 -0.34444E-01 -0.28643E-01 -0.23703E-01 -0.19375E-01 -0.15441E-01
 -0.11739E-01 -0.81525E-02 -0.46474E-02 -0.13009E-02  0.97359E-02  0.79733E-02
  0.53179E-02  0.18250E-02 -0.22488E-02 -0.65903E-02 -0.11012E-01 -0.15509E-01
 -0.20188E-01 -0.25200E-01 -0.30763E-01 -0.37177E-01 -0.44713E-01 -0.53470E-01
 -0.63329E-01 -0.74006E-01 -0.85041E-01 -0.95724E-01 -0.10512E+00 -0.11236E+00
 -0.11688E+00 -0.11850E+00 -0.11716E+00 -0.11281E+00 -0.10558E+00 -0.95997E-01