       #
       # Generated by the Wannier90 code http://www.wannier.org
       # On  1Apr2018 at 06:58:10 
       #
CRYSTAL
PRIMVEC
   3.0715001   0.0000000   0.0000000
   0.0300198   3.0713534   0.0000000
   0.0300198   0.0297278   3.0712095
CONVVEC
   3.0715001   0.0000000   0.0000000
   0.0300198   3.0713534   0.0000000
   0.0300198   0.0297278   3.0712095
PRIMCOORD
     1  1
Sn      0.0000000   0.0000000   0.0000000


BEGIN_BLOCK_DATAGRID_3D
3D_field
BEGIN_DATAGRID_3D_UNKNOWN
    40    40    40
   -3.288117   -3.256135   -3.224770
   5.9894252   0.0000000   0.0000000
   0.0585386   5.9891391   0.0000000
   0.0585386   0.0579692   5.9888585
  0.12358E-02  0.44483E-03  0.33165E-03  0.70729E-03  0.12063E-02  0.15866E-02
  0.18796E-02  0.23063E-02  0.30833E-02  0.42886E-02  0.58438E-02  0.75684E-02
  0.92596E-02  0.10762E-01  0.11956E-01  0.12650E-01  0.12517E-01  0.11272E-01
  0.89945E-02  0.62101E-02  0.35131E-02  0.10669E-02 -0.14303E-02 -0.42351E-02
 -0.70881E-02 -0.93337E-02 -0.10470E-01 -0.10504E-01 -0.97976E-02 -0.87110E-02
 -0.74422E-02 -0.61152E-02 -0.48824E-02 -0.39151E-02 -0.33410E-02 -0.31845E-02
 -0.33102E-02 -0.34246E-02 -0.32252E-02 -0.26468E-02  0.48881E-03  0.19749E-04
 -0.80967E-04  0.57087E-04  0.25659E-03  0.43709E-03  0.65784E-03  0.10567E-02
  0.17563E-02  0.28001E-02  0.41307E-02  0.56064E-02  0.70567E-02  0.83461E-02
  0.93659E-02  0.99334E-02  0.97472E-02  0.85749E-02  0.65682E-02  0.43102E-02
  0.23941E-02  0.90288E-03 -0.60849E-03 -0.25519E-02 -0.47767E-02 -0.66543E-02
 -0.76385E-02 -0.76621E-02 -0.70308E-02 -0.60770E-02 -0.49882E-02 -0.38749E-02
 -0.28665E-02 -0.21033E-02 -0.16761E-02 -0.15846E-02 -0.17194E-02 -0.18796E-02
 -0.18637E-02 -0.16063E-02 -0.21771E-03 -0.27456E-03 -0.34825E-03 -0.49568E-03
 -0.66688E-03 -0.74659E-03 -0.63824E-03 -0.30003E-03  0.27585E-03  0.10829E-02
  0.20831E-02  0.31836E-02  0.42565E-02  0.51876E-02  0.58737E-02  0.61504E-02
  0.57822E-02  0.46522E-02  0.30300E-02  0.15556E-02  0.78287E-03  0.66723E-03
  0.57555E-03 -0.11422E-03 -0.14278E-02 -0.28149E-02 -0.36809E-02 -0.38274E-02
 -0.34320E-02 -0.27602E-02 -0.19840E-02 -0.12058E-02 -0.52773E-03 -0.47013E-04
  0.18873E-03  0.19691E-03  0.40041E-04 -0.20051E-03 -0.44083E-03 -0.60411E-03
 -0.34198E-03  0.91522E-04  0.11397E-03 -0.28019E-03 -0.84446E-03 -0.12824E-02
 -0.14432E-02 -0.13439E-02 -0.10621E-02 -0.64822E-03 -0.13190E-03  0.43513E-03
  0.97295E-03  0.13992E-02  0.16227E-02  0.15035E-02  0.88758E-03 -0.19858E-03
 -0.13438E-02 -0.18501E-02 -0.12249E-02  0.32681E-03  0.19511E-02  0.27809E-02
  0.25778E-02  0.17886E-02  0.10570E-02  0.73765E-03  0.80999E-03  0.10920E-02
  0.14321E-02  0.17408E-02  0.19525E-02  0.20182E-02  0.19261E-02  0.16968E-02
  0.13449E-02  0.85646E-03  0.23689E-03 -0.39880E-03  0.30807E-03  0.12433E-02
  0.14438E-02  0.91585E-03  0.16850E-04 -0.83881E-03 -0.14414E-02 -0.18098E-02
 -0.20472E-02 -0.22232E-02 -0.23658E-02 -0.24980E-02 -0.26485E-02 -0.28477E-02
 -0.31512E-02 -0.36620E-02 -0.44568E-02 -0.53884E-02 -0.59384E-02 -0.53861E-02
 -0.33210E-02 -0.10143E-03  0.32305E-02  0.56040E-02  0.65910E-02  0.65243E-02
  0.60581E-02  0.56588E-02  0.54354E-02  0.52865E-02  0.50960E-02  0.48084E-02
  0.44090E-02  0.38986E-02  0.32905E-02  0.26012E-02  0.18176E-02  0.88759E-03
 -0.19681E-03 -0.12632E-02  0.15628E-02  0.29304E-02  0.33663E-02  0.28530E-02
  0.17552E-02  0.51311E-03 -0.62717E-03 -0.16445E-02 -0.26072E-02 -0.35638E-02
 -0.45295E-02 -0.55024E-02 -0.64601E-02 -0.73659E-02 -0.82096E-02 -0.90300E-02
 -0.98300E-02 -0.10394E-01 -0.10186E-01 -0.85462E-02 -0.51800E-02 -0.55524E-03
  0.42043E-02  0.79427E-02  0.10112E-01  0.10917E-01  0.10936E-01  0.10645E-01
  0.10221E-01  0.96415E-02  0.88574E-02  0.78751E-02  0.67408E-02  0.55014E-02
  0.41919E-02  0.28347E-02  0.14259E-02 -0.62494E-04 -0.15983E-02 -0.29595E-02
  0.31791E-02  0.48819E-02  0.55833E-02  0.52208E-02  0.40812E-02  0.25436E-02
  0.84994E-03 -0.92500E-03 -0.27711E-02 -0.46704E-02 -0.65954E-02 -0.85115E-02
 -0.10353E-01 -0.12017E-01 -0.13409E-01 -0.14468E-01 -0.15110E-01 -0.15093E-01
 -0.13958E-01 -0.11209E-01 -0.67067E-02 -0.97924E-03  0.48894E-02  0.97886E-02
  0.13121E-01  0.14936E-01  0.15640E-01  0.15617E-01  0.15063E-01  0.14048E-01
  0.12624E-01  0.10880E-01  0.89203E-02  0.68278E-02  0.46651E-02  0.24862E-02
  0.33813E-03 -0.17354E-02 -0.36377E-02 -0.51271E-02  0.50847E-02  0.70732E-02
  0.80618E-02  0.79319E-02  0.68481E-02  0.50777E-02  0.28282E-02  0.22717E-03
 -0.26154E-02 -0.55834E-02 -0.85781E-02 -0.11519E-01 -0.14301E-01 -0.16770E-01
 -0.18742E-01 -0.20036E-01 -0.20459E-01 -0.19752E-01 -0.17584E-01 -0.13678E-01
 -0.80819E-02 -0.13623E-02  0.54976E-02  0.11495E-01  0.16010E-01  0.18914E-01
  0.20389E-01  0.20681E-01  0.19997E-01  0.18511E-01  0.16401E-01  0.13840E-01
  0.10978E-01  0.79314E-02  0.48024E-02  0.17008E-02 -0.12464E-02 -0.39018E-02
 -0.61008E-02 -0.76114E-02  0.73825E-02  0.96888E-02  0.10989E-01  0.11102E-01
  0.10063E-01  0.80287E-02  0.51743E-02  0.16836E-02 -0.22332E-02 -0.63621E-02
 -0.10527E-01 -0.14586E-01 -0.18384E-01 -0.21714E-01 -0.24312E-01 -0.25882E-01
 -0.26120E-01 -0.24739E-01 -0.21517E-01 -0.16388E-01 -0.95842E-02 -0.17257E-02
  0.62745E-02  0.13487E-01  0.19245E-01  0.23243E-01  0.25455E-01  0.26016E-01
  0.25155E-01  0.23155E-01  0.20305E-01  0.16850E-01  0.12990E-01  0.88918E-02
  0.47119E-02  0.62338E-03 -0.31672E-02 -0.64315E-02 -0.89411E-02 -0.10477E-01
  0.10195E-01  0.12910E-01  0.14552E-01  0.14863E-01  0.13774E-01  0.11361E-01
  0.77993E-02  0.33417E-02 -0.17149E-02 -0.70855E-02 -0.12531E-01 -0.17835E-01
 -0.22760E-01 -0.27021E-01 -0.30285E-01 -0.32172E-01 -0.32292E-01 -0.30314E-01
 -0.26068E-01 -0.19634E-01 -0.11403E-01 -0.20876E-02  0.73763E-02  0.16036E-01
  0.23129E-01  0.28194E-01  0.31062E-01  0.31818E-01  0.30734E-01  0.28179E-01
  0.24517E-01  0.20060E-01  0.15076E-01  0.98138E-02  0.45021E-02 -0.63039E-03
 -0.53211E-02 -0.92696E-02 -0.12183E-01 -0.13836E-01  0.13522E-01  0.16755E-01
  0.18774E-01  0.19241E-01  0.17996E-01  0.15073E-01  0.10683E-01  0.51573E-02
 -0.11328E-02 -0.78549E-02 -0.14717E-01 -0.21414E-01 -0.27597E-01 -0.32884E-01
 -0.36874E-01 -0.39131E-01 -0.39193E-01 -0.36673E-01 -0.31400E-01 -0.23533E-01
 -0.13597E-01 -0.24438E-02  0.88688E-02  0.19262E-01  0.27832E-01  0.33979E-01
  0.37454E-01  0.38344E-01  0.36979E-01  0.33799E-01  0.29226E-01  0.23634E-01
  0.17383E-01  0.10824E-01  0.42714E-02 -0.19947E-02 -0.76731E-02 -0.12408E-01
 -0.15840E-01 -0.17714E-01  0.17215E-01  0.21068E-01  0.23521E-01  0.24137E-01
  0.22679E-01  0.19161E-01  0.13838E-01  0.71202E-02 -0.55127E-03 -0.87867E-02
 -0.17223E-01 -0.25460E-01 -0.33040E-01 -0.39490E-01 -0.44334E-01 -0.47057E-01
 -0.47112E-01 -0.44034E-01 -0.37631E-01 -0.28119E-01 -0.16155E-01 -0.27693E-02
  0.10786E-01  0.23238E-01  0.33500E-01  0.40837E-01  0.44941E-01  0.45916E-01
  0.44166E-01  0.40218E-01  0.34581E-01  0.27711E-01  0.20055E-01  0.12054E-01
  0.41091E-02 -0.34325E-02 -0.10218E-01 -0.15838E-01 -0.19875E-01 -0.22030E-01
  0.21064E-01  0.25641E-01  0.28605E-01  0.29402E-01  0.27719E-01  0.23558E-01
  0.17217E-01  0.91722E-02 -0.61017E-04 -0.99977E-02 -0.20166E-01 -0.30073E-01
 -0.39196E-01 -0.46995E-01 -0.52884E-01 -0.56205E-01 -0.56274E-01 -0.52543E-01
 -0.44814E-01 -0.33377E-01 -0.19037E-01 -0.30269E-02  0.13161E-01  0.28014E-01
  0.40238E-01  0.48947E-01  0.53762E-01  0.54791E-01  0.52516E-01  0.47597E-01
  0.40696E-01  0.32392E-01  0.23201E-01  0.13618E-01  0.41131E-02 -0.48721E-02
 -0.12898E-01 -0.19492E-01 -0.24191E-01 -0.26657E-01  0.24873E-01  0.30310E-01
  0.33894E-01  0.34911E-01  0.32977E-01  0.28108E-01  0.20658E-01  0.11160E-01
  0.20696E-03 -0.11588E-01 -0.23621E-01 -0.35321E-01 -0.46142E-01 -0.55480E-01
 -0.62588E-01 -0.66590E-01 -0.66635E-01 -0.62115E-01 -0.52854E-01 -0.39226E-01
 -0.22182E-01 -0.31776E-02  0.16016E-01  0.33596E-01  0.48032E-01  0.58286E-01
  0.63904E-01  0.64989E-01  0.62087E-01  0.56015E-01  0.47648E-01  0.37740E-01
  0.26888E-01  0.15601E-01  0.43989E-02 -0.61716E-02 -0.15559E-01 -0.23225E-01
 -0.28667E-01 -0.31497E-01  0.28443E-01  0.34918E-01  0.39258E-01  0.40531E-01
  0.38279E-01  0.32588E-01  0.23914E-01  0.12864E-01  0.10678E-03 -0.13626E-01
 -0.27609E-01 -0.41215E-01 -0.53872E-01 -0.64873E-01 -0.73251E-01 -0.77899E-01
 -0.77828E-01 -0.72407E-01 -0.61488E-01 -0.45496E-01 -0.25500E-01 -0.31924E-02
  0.19323E-01  0.39893E-01  0.56711E-01  0.68599E-01  0.75067E-01  0.76231E-01
  0.72687E-01  0.65385E-01  0.55416E-01  0.43757E-01  0.31122E-01  0.18047E-01
  0.50802E-02 -0.71447E-02 -0.17980E-01 -0.26832E-01 -0.33147E-01 -0.36440E-01
  0.31532E-01  0.39196E-01  0.44399E-01  0.45933E-01  0.43276E-01  0.36645E-01
  0.26663E-01  0.14041E-01 -0.49242E-03 -0.16134E-01 -0.32084E-01 -0.47659E-01
 -0.62211E-01 -0.74860E-01 -0.84407E-01 -0.89557E-01 -0.89253E-01 -0.82862E-01
 -0.70232E-01 -0.51808E-01 -0.28774E-01 -0.30610E-02  0.22890E-01  0.46562E-01
  0.65846E-01  0.79400E-01  0.86722E-01  0.87990E-01  0.83863E-01  0.75377E-01
  0.63796E-01  0.50318E-01  0.35832E-01  0.20948E-01  0.62479E-02 -0.75893E-02
 -0.19873E-01 -0.29982E-01 -0.37293E-01 -0.41162E-01  0.33979E-01  0.42786E-01
  0.48764E-01  0.50445E-01  0.47289E-01  0.39686E-01  0.28459E-01  0.14417E-01
 -0.16974E-02 -0.19080E-01 -0.36900E-01 -0.54395E-01 -0.70758E-01 -0.84888E-01
 -0.95376E-01 -0.10081E+00 -0.10011E+00 -0.92618E-01 -0.78180E-01 -0.57348E-01
 -0.31509E-01 -0.27979E-02  0.26192E-01  0.52757E-01  0.74510E-01  0.89830E-01
  0.98098E-01  0.99546E-01  0.94945E-01  0.85421E-01  0.72353E-01  0.57126E-01
  0.40833E-01  0.24229E-01  0.79618E-02 -0.72794E-02 -0.20834E-01 -0.32115E-01
 -0.40443E-01 -0.44981E-01  0.35932E-01  0.45479E-01  0.51776E-01  0.53252E-01
  0.49460E-01  0.40988E-01  0.28806E-01  0.13737E-01 -0.35565E-02 -0.22347E-01
 -0.41792E-01 -0.61001E-01 -0.78936E-01 -0.94253E-01 -0.10538E+00 -0.11083E+00
 -0.10944E+00 -0.10049E+00 -0.83997E-01 -0.60887E-01 -0.32971E-01 -0.24503E-02
  0.28396E-01  0.57147E-01  0.81265E-01  0.98624E-01  0.10816E+00  0.11003E+00
  0.10514E+00  0.94800E-01  0.80486E-01  0.63726E-01  0.45818E-01  0.27726E-01
  0.10219E-01 -0.60138E-02 -0.20423E-01 -0.32558E-01 -0.41776E-01 -0.47089E-01
  0.37798E-01  0.47373E-01  0.53218E-01  0.53927E-01  0.49313E-01  0.40166E-01
  0.27490E-01  0.11967E-01 -0.59520E-02 -0.25686E-01 -0.46381E-01 -0.66961E-01
 -0.86115E-01 -0.10226E+00 -0.11370E+00 -0.11883E+00 -0.11632E+00 -0.10543E+00
 -0.86554E-01 -0.61465E-01 -0.32633E-01 -0.20968E-02  0.28820E-01  0.58619E-01
  0.84834E-01  0.10457E+00  0.11590E+00  0.11858E+00  0.11370E+00  0.10280E+00
  0.87545E-01  0.69573E-01  0.50370E-01  0.31148E-01  0.12854E-01 -0.38178E-02
 -0.18501E-01 -0.31018E-01 -0.40906E-01 -0.47125E-01  0.39779E-01  0.48712E-01
  0.53419E-01  0.52891E-01  0.47334E-01  0.37726E-01  0.24993E-01  0.95413E-02
 -0.84866E-02 -0.28696E-01 -0.50211E-01 -0.71750E-01 -0.91730E-01 -0.10837E+00
 -0.11984E+00 -0.12438E+00 -0.12044E+00 -0.10730E+00 -0.85986E-01 -0.59394E-01
 -0.30779E-01 -0.18139E-02  0.27599E-01  0.57337E-01  0.85195E-01  0.10739E+00
  0.12081E+00  0.12464E+00  0.12001E+00  0.10883E+00  0.92944E-01  0.74120E-01
  0.54008E-01  0.34063E-01  0.15432E-01 -0.11814E-02 -0.15635E-01 -0.28109E-01
 -0.38435E-01 -0.45621E-01  0.41466E-01  0.49568E-01  0.53048E-01  0.51321E-01
  0.44958E-01  0.35085E-01  0.22506E-01  0.73510E-02 -0.10523E-01 -0.30882E-01
 -0.52830E-01 -0.74914E-01 -0.95347E-01 -0.11221E+00 -0.12357E+00 -0.12752E+00
 -0.12231E+00 -0.10727E+00 -0.84056E-01 -0.56543E-01 -0.28638E-01 -0.16171E-02
  0.25920E-01  0.55100E-01  0.83999E-01  0.10809E+00  0.12325E+00  0.12809E+00
  0.12378E+00  0.11246E+00  0.96221E-01  0.76897E-01  0.56264E-01  0.35961E-01
  0.17291E-01  0.95941E-03 -0.13084E-01 -0.25330E-01 -0.35887E-01 -0.43842E-01
  0.42100E-01  0.49806E-01  0.52735E-01  0.50484E-01  0.43784E-01  0.33815E-01
  0.21327E-01  0.63280E-02 -0.11444E-01 -0.31819E-01 -0.53888E-01 -0.76131E-01
 -0.96685E-01 -0.11358E+00 -0.12487E+00 -0.12856E+00 -0.12283E+00 -0.10704E+00
 -0.83074E-01 -0.55229E-01 -0.27649E-01 -0.14354E-02  0.25331E-01  0.54254E-01
  0.83499E-01  0.10824E+00  0.12398E+00  0.12912E+00  0.12487E+00  0.11347E+00
  0.97081E-01  0.77586E-01  0.56798E-01  0.36419E-01  0.17802E-01  0.16457E-02
 -0.12179E-01 -0.24280E-01 -0.34866E-01 -0.43055E-01  0.41324E-01  0.49363E-01
  0.52763E-01  0.50952E-01  0.44525E-01  0.34617E-01  0.22028E-01  0.68755E-02
 -0.10990E-01 -0.31332E-01 -0.53246E-01 -0.75274E-01 -0.95633E-01 -0.11242E+00
 -0.12373E+00 -0.12765E+00 -0.12242E+00 -0.10735E+00 -0.84061E-01 -0.56441E-01
 -0.28385E-01 -0.11664E-02  0.26573E-01  0.55866E-01  0.84702E-01  0.10855E+00
  0.12335E+00  0.12785E+00  0.12326E+00  0.11177E+00  0.95433E-01  0.76089E-01
  0.55497E-01  0.35276E-01  0.16708E-01  0.47624E-03 -0.13477E-01 -0.25619E-01
 -0.36021E-01 -0.43755E-01  0.39576E-01  0.48400E-01  0.52943E-01  0.52234E-01
  0.46527E-01  0.36831E-01  0.24063E-01  0.86081E-02 -0.94028E-02 -0.29571E-01
 -0.51013E-01 -0.72440E-01 -0.92274E-01 -0.10876E+00 -0.12011E+00 -0.12457E+00
 -0.12057E+00 -0.10734E+00 -0.85859E-01 -0.59025E-01 -0.30099E-01 -0.77702E-03
  0.28948E-01  0.58802E-01  0.86458E-01  0.10814E+00  0.12090E+00  0.12409E+00
  0.11897E+00  0.10746E+00  0.91406E-01  0.72553E-01  0.52518E-01  0.32725E-01
  0.14290E-01 -0.21185E-02 -0.16371E-01 -0.28612E-01 -0.38613E-01 -0.45369E-01
  0.37641E-01  0.47077E-01  0.52679E-01  0.53099E-01  0.48233E-01  0.38922E-01
  0.26168E-01  0.10625E-01 -0.72701E-02 -0.26936E-01 -0.47514E-01 -0.67930E-01
 -0.86873E-01 -0.10279E+00 -0.11401E+00 -0.11897E+00 -0.11632E+00 -0.10525E+00
 -0.86087E-01 -0.60608E-01 -0.31322E-01 -0.35017E-03  0.30852E-01  0.60626E-01
  0.86415E-01  0.10539E+00  0.11581E+00  0.11766E+00  0.11212E+00  0.10080E+00
  0.85333E-01  0.67335E-01  0.48244E-01  0.29229E-01  0.11211E-01 -0.51470E-02
 -0.19495E-01 -0.31625E-01 -0.41016E-01 -0.46626E-01  0.35887E-01  0.45276E-01
  0.51266E-01  0.52361E-01  0.48221E-01  0.39505E-01  0.27192E-01  0.12075E-01
 -0.51961E-02 -0.23896E-01 -0.43187E-01 -0.62188E-01 -0.79859E-01 -0.94861E-01
 -0.10566E+00 -0.11081E+00 -0.10915E+00 -0.99904E-01 -0.83006E-01 -0.59397E-01
 -0.30959E-01 -0.26651E-04  0.30962E-01  0.59457E-01  0.82901E-01  0.99290E-01
  0.10778E+00  0.10869E+00  0.10307E+00  0.92245E-01  0.77706E-01  0.60935E-01
  0.43169E-01  0.25331E-01  0.81691E-02 -0.76449E-02 -0.21581E-01 -0.33177E-01
 -0.41752E-01 -0.46332E-01  0.34058E-01  0.42691E-01  0.48326E-01  0.49571E-01
  0.46002E-01  0.38091E-01  0.26676E-01  0.12549E-01 -0.35564E-02 -0.20839E-01
 -0.38480E-01 -0.55733E-01 -0.71789E-01 -0.85535E-01 -0.95582E-01 -0.10057E+00
 -0.99448E-01 -0.91520E-01 -0.76595E-01 -0.55228E-01 -0.28899E-01  0.10308E-03
  0.29035E-01  0.55114E-01  0.75997E-01  0.90221E-01  0.97365E-01  0.97820E-01
  0.92453E-01  0.82434E-01  0.69141E-01  0.53918E-01  0.37793E-01  0.21480E-01
  0.56186E-02 -0.91113E-02 -0.22074E-01 -0.32692E-01 -0.40278E-01 -0.44029E-01
  0.31721E-01  0.39197E-01  0.44049E-01  0.45135E-01  0.42038E-01  0.35053E-01
  0.24832E-01  0.12083E-01 -0.24673E-02 -0.18016E-01 -0.33775E-01 -0.49086E-01
 -0.63296E-01 -0.75512E-01 -0.84536E-01 -0.89116E-01 -0.88244E-01 -0.81301E-01
 -0.68129E-01 -0.49198E-01 -0.25781E-01  0.55626E-04  0.25758E-01  0.48777E-01
  0.67083E-01  0.79493E-01  0.85683E-01  0.85962E-01  0.81076E-01  0.72101E-01
  0.60302E-01  0.46835E-01  0.32530E-01  0.17967E-01  0.37219E-02 -0.95340E-02
 -0.21140E-01 -0.30503E-01 -0.37020E-01 -0.40098E-01  0.28737E-01  0.35017E-01
  0.39018E-01  0.39859E-01  0.37163E-01  0.31090E-01  0.22135E-01  0.10914E-01
 -0.18939E-02 -0.15556E-01 -0.29356E-01 -0.42685E-01 -0.54978E-01 -0.65518E-01
 -0.73336E-01 -0.77346E-01 -0.76612E-01 -0.70553E-01 -0.59062E-01 -0.42613E-01
 -0.22357E-01 -0.78585E-04  0.22050E-01  0.41878E-01  0.57689E-01  0.68444E-01
  0.73806E-01  0.74011E-01  0.69736E-01  0.61964E-01  0.51780E-01  0.40127E-01
  0.27676E-01  0.14940E-01  0.24611E-02 -0.91393E-02 -0.19246E-01 -0.27305E-01
 -0.32807E-01 -0.35333E-01  0.25286E-01  0.30530E-01  0.33795E-01  0.34405E-01
  0.32033E-01  0.26764E-01  0.18999E-01  0.92938E-02 -0.17482E-02 -0.13511E-01
 -0.25388E-01 -0.36818E-01 -0.47268E-01 -0.56140E-01 -0.62683E-01 -0.66034E-01
 -0.65381E-01 -0.60185E-01 -0.50343E-01 -0.36303E-01 -0.19086E-01 -0.20960E-03
  0.18526E-01  0.35341E-01  0.48790E-01  0.57957E-01  0.62520E-01  0.62692E-01
  0.59093E-01  0.52568E-01  0.43981E-01  0.34064E-01  0.23389E-01  0.12450E-01
  0.17527E-02 -0.81761E-02 -0.16816E-01 -0.23673E-01 -0.28302E-01 -0.30395E-01
  0.21616E-01  0.26016E-01  0.28683E-01  0.29092E-01  0.26978E-01  0.22405E-01
  0.15723E-01  0.74385E-02 -0.19247E-02 -0.11878E-01 -0.21939E-01 -0.31608E-01
 -0.40376E-01 -0.47718E-01 -0.53059E-01 -0.55748E-01 -0.55131E-01 -0.50731E-01
 -0.42435E-01 -0.30615E-01 -0.16142E-01 -0.29407E-03  0.15425E-01  0.29537E-01
  0.40826E-01  0.48517E-01  0.52342E-01  0.52513E-01  0.49573E-01  0.44208E-01
  0.37075E-01  0.28743E-01  0.19721E-01  0.10486E-01  0.14865E-02 -0.68612E-02
 -0.14144E-01 -0.19935E-01 -0.23839E-01 -0.25600E-01  0.17912E-01  0.21616E-01
  0.23798E-01  0.24047E-01  0.22167E-01  0.18225E-01  0.12532E-01  0.55372E-02
 -0.23093E-02 -0.10615E-01 -0.19004E-01 -0.27058E-01 -0.34323E-01 -0.40347E-01
 -0.44671E-01 -0.46796E-01 -0.46203E-01 -0.42491E-01 -0.35548E-01 -0.25668E-01
 -0.13572E-01 -0.33139E-03  0.12791E-01  0.24559E-01  0.33962E-01  0.40362E-01
  0.43552E-01  0.43723E-01  0.41336E-01  0.36945E-01  0.31062E-01  0.24150E-01
  0.16649E-01  0.89854E-02  0.15309E-02 -0.53923E-02 -0.11456E-01 -0.16294E-01
 -0.19564E-01 -0.21046E-01  0.14345E-01  0.17469E-01  0.19256E-01  0.19383E-01
  0.17726E-01  0.14367E-01  0.95725E-02  0.37211E-02 -0.27979E-02 -0.96481E-02
 -0.16526E-01 -0.23109E-01 -0.29042E-01 -0.33958E-01 -0.37478E-01 -0.39183E-01
 -0.38644E-01 -0.35528E-01 -0.29737E-01 -0.21499E-01 -0.11399E-01 -0.33626E-03
  0.10617E-01  0.20412E-01  0.28213E-01  0.33509E-01  0.36142E-01  0.36276E-01
  0.34302E-01  0.30686E-01  0.25861E-01  0.20211E-01  0.14096E-01  0.78479E-02
  0.17554E-02 -0.39227E-02 -0.89079E-02 -0.12891E-01 -0.15588E-01 -0.16818E-01
  0.11112E-01  0.13767E-01  0.15224E-01  0.15235E-01  0.13751E-01  0.10890E-01
  0.68850E-02  0.20434E-02 -0.33060E-02 -0.88691E-02 -0.14399E-01 -0.19667E-01
 -0.24427E-01 -0.28401E-01 -0.31269E-01 -0.32670E-01 -0.32239E-01 -0.29696E-01
 -0.24932E-01 -0.18094E-01 -0.96341E-02 -0.31913E-03  0.88916E-02  0.17063E-01
  0.23491E-01  0.27788E-01  0.29873E-01  0.29914E-01  0.28247E-01  0.25270E-01
  0.21356E-01  0.16824E-01  0.11944E-01  0.69520E-02  0.20573E-02 -0.25289E-02
 -0.65661E-02 -0.97995E-02 -0.12007E-01 -0.13037E-01  0.83640E-02  0.10661E-01
  0.11828E-01  0.11680E-01  0.10268E-01  0.77821E-02  0.44530E-02  0.52325E-03
 -0.37558E-02 -0.81528E-02 -0.12484E-01 -0.16599E-01 -0.20333E-01 -0.23479E-01
 -0.25779E-01 -0.26948E-01 -0.26696E-01 -0.24774E-01 -0.21012E-01 -0.15409E-01
 -0.82706E-02 -0.28291E-03  0.76034E-02  0.14461E-01  0.19664E-01  0.22975E-01
  0.24455E-01  0.24335E-01  0.22913E-01  0.20504E-01  0.17399E-01  0.13847E-01
  0.10051E-01  0.61729E-02  0.23563E-02 -0.12421E-02 -0.44367E-02 -0.70361E-02
 -0.88700E-02 -0.97929E-02  0.61046E-02  0.81371E-02  0.90388E-02  0.86826E-02
  0.72462E-02  0.50308E-02  0.22920E-02 -0.78945E-03 -0.40606E-02 -0.73808E-02
 -0.10639E-01 -0.13742E-01 -0.16575E-01 -0.18977E-01 -0.20767E-01 -0.21764E-01
 -0.21777E-01 -0.20561E-01 -0.17816E-01 -0.13334E-01 -0.72518E-02 -0.22892E-03
  0.66878E-02  0.12480E-01  0.16556E-01  0.18857E-01  0.19655E-01  0.19299E-01
  0.18071E-01  0.16181E-01  0.13808E-01  0.11123E-01  0.82814E-02  0.54005E-02
  0.25704E-02 -0.11675E-03 -0.25510E-02 -0.46150E-02 -0.61808E-02 -0.70834E-02
  0.42036E-02  0.60074E-02  0.66652E-02  0.61050E-02  0.46338E-02  0.26669E-02
  0.48574E-03 -0.17942E-02 -0.41250E-02 -0.64599E-02 -0.87518E-02 -0.10948E-01
 -0.12966E-01 -0.14691E-01 -0.16028E-01 -0.16915E-01 -0.17252E-01 -0.16778E-01
 -0.15036E-01 -0.11586E-01 -0.64076E-02 -0.16449E-03  0.59561E-02  0.10809E-01
  0.13827E-01  0.15134E-01  0.15234E-01  0.14609E-01  0.13534E-01  0.12114E-01
  0.10413E-01  0.85182E-02  0.65356E-02  0.45487E-02  0.26069E-02  0.74559E-03
 -0.99920E-03 -0.25835E-02 -0.39190E-02 -0.48177E-02  0.25510E-02  0.40827E-02
  0.45218E-02  0.38427E-02  0.24390E-02  0.79083E-03 -0.82489E-03 -0.23598E-02
 -0.38513E-02 -0.53179E-02 -0.67498E-02 -0.81212E-02 -0.93844E-02 -0.10485E-01
 -0.11411E-01 -0.12197E-01 -0.12814E-01 -0.12991E-01 -0.12157E-01 -0.97003E-02
 -0.54651E-02 -0.10620E-03  0.51062E-02  0.89640E-02  0.10957E-01  0.11373E-01
  0.10888E-01  0.10067E-01  0.91578E-02  0.81827E-02  0.71104E-02  0.59513E-02
  0.47511E-02  0.35518E-02  0.23750E-02  0.12256E-02  0.94083E-04 -0.10302E-02
 -0.20974E-02 -0.29186E-02  0.12382E-02  0.24030E-02  0.26614E-02  0.20107E-02
  0.84168E-03 -0.39103E-03 -0.14537E-02 -0.23474E-02 -0.31498E-02 -0.38998E-02
 -0.45970E-02 -0.52350E-02 -0.58107E-02 -0.63315E-02 -0.68465E-02 -0.74493E-02
 -0.81709E-02 -0.87837E-02 -0.87098E-02 -0.72651E-02 -0.41948E-02 -0.72766E-04
  0.38856E-02  0.65452E-02  0.75146E-02  0.72105E-02  0.63731E-02  0.55437E-02
  0.48948E-02  0.43736E-02  0.38924E-02  0.34056E-02  0.28981E-02  0.23643E-02
  0.18047E-02  0.12202E-02  0.59406E-03 -0.10236E-03 -0.84369E-03 -0.14682E-02
  0.55426E-03  0.12777E-02  0.14178E-02  0.95493E-03  0.16510E-03 -0.61929E-03
 -0.12273E-02 -0.16623E-02 -0.19787E-02 -0.21959E-02 -0.23101E-02 -0.23371E-02
 -0.23189E-02 -0.23108E-02 -0.23919E-02 -0.26841E-02 -0.32872E-02 -0.40912E-02
 -0.46288E-02 -0.42410E-02 -0.25853E-02 -0.68992E-04  0.22910E-02  0.35608E-02
  0.35208E-02  0.26756E-02  0.17315E-02  0.11027E-02  0.82773E-03  0.77596E-03
  0.83102E-03  0.92160E-03  0.98817E-03  0.97972E-03  0.87394E-03  0.67580E-03
  0.39222E-03  0.25421E-04 -0.38657E-03 -0.72261E-03  0.52160E-03  0.52805E-04
 -0.48069E-04  0.89198E-04  0.28693E-03  0.46460E-03  0.68179E-03  0.10770E-02
  0.17734E-02  0.28144E-02  0.41428E-02  0.56168E-02  0.70657E-02  0.83539E-02
  0.93727E-02  0.99394E-02  0.97523E-02  0.85792E-02  0.65717E-02  0.43134E-02
  0.23973E-02  0.90638E-03 -0.60478E-03 -0.25485E-02 -0.47741E-02 -0.66531E-02
 -0.76388E-02 -0.76641E-02 -0.70344E-02 -0.60822E-02 -0.49950E-02 -0.38836E-02
 -0.28773E-02 -0.21166E-02 -0.16925E-02 -0.16046E-02 -0.17435E-02 -0.19076E-02
 -0.18949E-02 -0.16394E-02  0.30025E-04 -0.30275E-03 -0.60386E-03 -0.86520E-03
 -0.10251E-02 -0.10032E-02 -0.75106E-03 -0.25608E-03  0.48703E-03  0.14816E-02
  0.26934E-02  0.40233E-02  0.53383E-02  0.65361E-02  0.75429E-02  0.82122E-02
  0.82657E-02  0.74515E-02  0.58383E-02  0.38922E-02  0.21348E-02  0.69088E-03
 -0.74877E-03 -0.24678E-02 -0.42927E-02 -0.56868E-02 -0.62340E-02 -0.59537E-02
 -0.51689E-02 -0.41860E-02 -0.31550E-02 -0.21501E-02 -0.12659E-02 -0.60509E-03
 -0.21925E-03 -0.85987E-04 -0.13094E-03 -0.26251E-03 -0.40051E-03 -0.49295E-03
 -0.55506E-03 -0.68640E-03 -0.11398E-02 -0.17718E-02 -0.22795E-02 -0.24206E-02
 -0.21560E-02 -0.15972E-02 -0.85793E-03  0.19112E-04  0.10194E-02  0.20908E-02
  0.31474E-02  0.41216E-02  0.49679E-02  0.55802E-02  0.57399E-02  0.52368E-02
  0.41063E-02  0.27035E-02  0.14443E-02  0.44622E-03 -0.51412E-03 -0.16509E-02
 -0.28345E-02 -0.36638E-02 -0.38412E-02 -0.34088E-02 -0.26358E-02 -0.17667E-02
 -0.91465E-03 -0.12677E-03  0.54059E-03  0.10324E-02  0.13396E-02  0.14977E-02
  0.15336E-02  0.14219E-02  0.11208E-02  0.67262E-03 -0.75022E-03 -0.56642E-03
 -0.10167E-02 -0.18793E-02 -0.26830E-02 -0.30589E-02 -0.29509E-02 -0.25313E-02
 -0.19825E-02 -0.13806E-02 -0.73567E-03 -0.67190E-04  0.58421E-03  0.11873E-02
  0.17154E-02  0.20920E-02  0.21713E-02  0.18405E-02  0.11859E-02  0.51932E-03
  0.15651E-03  0.13392E-03  0.18546E-03  0.35648E-04 -0.30754E-03 -0.57657E-03
 -0.52323E-03 -0.12457E-03  0.46258E-03  0.10705E-02  0.16120E-02  0.20563E-02
  0.23851E-02  0.25897E-02  0.26896E-02  0.27169E-02  0.26563E-02  0.24078E-02
  0.18653E-02  0.10906E-02 -0.31967E-03  0.26400E-03 -0.33734E-05 -0.90193E-03
 -0.19070E-02 -0.25864E-02 -0.28398E-02 -0.28178E-02 -0.26983E-02 -0.25670E-02
 -0.24422E-02 -0.23296E-02 -0.22289E-02 -0.21287E-02 -0.20338E-02 -0.19994E-02
 -0.21054E-02 -0.23492E-02 -0.25429E-02 -0.23588E-02 -0.15616E-02 -0.24755E-03
  0.11699E-02  0.22554E-02  0.28563E-02  0.31348E-02  0.33462E-02  0.36210E-02
  0.39282E-02  0.41727E-02  0.42892E-02  0.42665E-02  0.41261E-02  0.38994E-02
  0.36176E-02  0.32977E-02  0.29025E-02  0.23216E-02  0.14630E-02  0.43720E-03
  0.65676E-03  0.16428E-02  0.16832E-02  0.93112E-03 -0.14595E-03 -0.11273E-02
 -0.18661E-02 -0.24354E-02 -0.29497E-02 -0.34711E-02 -0.40210E-02 -0.45977E-02
 -0.51652E-02 -0.56641E-02 -0.60619E-02 -0.63798E-02 -0.66377E-02 -0.67412E-02
 -0.64222E-02 -0.53421E-02 -0.33417E-02 -0.65232E-03  0.21550E-02  0.44854E-02
  0.60450E-02  0.69102E-02  0.73380E-02  0.75335E-02  0.75597E-02  0.73891E-02
  0.69962E-02  0.64056E-02  0.56809E-02  0.48842E-02  0.40523E-02  0.31936E-02
  0.22799E-02  0.12460E-02  0.68347E-04 -0.10888E-02  0.20016E-02  0.33331E-02
  0.37300E-02  0.32479E-02  0.22250E-02  0.10073E-02 -0.23670E-03 -0.14911E-02
 -0.27765E-02 -0.40970E-02 -0.54494E-02 -0.68155E-02 -0.81315E-02 -0.92948E-02
 -0.10218E-01 -0.10857E-01 -0.11161E-01 -0.10979E-01 -0.10032E-01 -0.80341E-02
 -0.49223E-02 -0.10308E-02  0.29794E-02  0.64285E-02  0.89299E-02  0.10470E-01
  0.11247E-01  0.11466E-01  0.11243E-01  0.10626E-01  0.96627E-02  0.84323E-02
  0.70344E-02  0.55523E-02  0.40349E-02  0.25077E-02  0.98552E-03 -0.52017E-03
 -0.19512E-02 -0.31127E-02  0.36584E-02  0.52882E-02  0.60414E-02  0.58738E-02
  0.49718E-02  0.35755E-02  0.18470E-02 -0.12469E-03 -0.22630E-02 -0.44903E-02
 -0.67479E-02 -0.89836E-02 -0.11109E-01 -0.12989E-01 -0.14474E-01 -0.15424E-01
 -0.15696E-01 -0.15102E-01 -0.13415E-01 -0.10467E-01 -0.63157E-02 -0.13699E-02
  0.36889E-02  0.81661E-02  0.11615E-01  0.13912E-01  0.15139E-01  0.15447E-01
  0.14982E-01  0.13885E-01  0.12301E-01  0.10371E-01  0.82241E-02  0.59613E-02
  0.36590E-02  0.13886E-02 -0.76856E-03 -0.27183E-02 -0.43358E-02 -0.54266E-02
  0.57144E-02  0.76510E-02  0.87456E-02  0.88638E-02  0.80570E-02  0.64670E-02
  0.42429E-02  0.15313E-02 -0.15081E-02 -0.47178E-02 -0.79719E-02 -0.11165E-01
 -0.14172E-01 -0.16822E-01 -0.18904E-01 -0.20181E-01 -0.20410E-01 -0.19367E-01
 -0.16888E-01 -0.12939E-01 -0.77141E-02 -0.16885E-02  0.44463E-02  0.99877E-02
  0.14426E-01  0.17513E-01  0.19209E-01  0.19604E-01  0.18878E-01  0.17267E-01
  0.15012E-01  0.12311E-01  0.93276E-02  0.61945E-02  0.30353E-02 -0.20390E-04
 -0.28246E-02 -0.52132E-02 -0.70137E-02 -0.80460E-02  0.82657E-02  0.10568E-01
  0.11995E-01  0.12332E-01  0.11528E-01  0.96570E-02  0.68726E-02  0.33762E-02
 -0.60771E-03 -0.48657E-02 -0.92129E-02 -0.13475E-01 -0.17460E-01 -0.20941E-01
 -0.23651E-01 -0.25277E-01 -0.25493E-01 -0.24032E-01 -0.20759E-01 -0.15746E-01
 -0.93054E-02 -0.20060E-02  0.54035E-02  0.12160E-01  0.17660E-01  0.21539E-01
  0.23665E-01  0.24108E-01  0.23095E-01  0.20942E-01  0.17955E-01  0.14389E-01
  0.10458E-01  0.63583E-02  0.22771E-02 -0.16032E-02 -0.50872E-02 -0.79599E-02
 -0.10009E-01 -0.11061E-01  0.11279E-01  0.14022E-01  0.15795E-01  0.16301E-01
  0.15410E-01  0.13159E-01  0.97231E-02  0.53641E-02  0.35951E-03 -0.50381E-02
 -0.10593E-01 -0.16051E-01 -0.21127E-01 -0.25521E-01 -0.28908E-01 -0.30924E-01
 -0.31173E-01 -0.29330E-01 -0.25251E-01 -0.19063E-01 -0.11187E-01 -0.23212E-02
  0.66589E-02  0.14858E-01  0.21540E-01  0.26233E-01  0.28758E-01  0.29203E-01
  0.27857E-01  0.25100E-01  0.21293E-01  0.16748E-01  0.11750E-01  0.65768E-02
  0.14876E-02 -0.32881E-02 -0.75205E-02 -0.10955E-01 -0.13339E-01 -0.14489E-01
  0.14565E-01  0.17827E-01  0.19987E-01  0.20667E-01  0.19659E-01  0.16971E-01
  0.12806E-01  0.74797E-02  0.13271E-02 -0.53463E-02 -0.12239E-01 -0.19014E-01
 -0.25305E-01 -0.30737E-01 -0.34922E-01 -0.37418E-01 -0.37750E-01 -0.35517E-01
 -0.30543E-01 -0.22992E-01 -0.13394E-01 -0.26120E-02  0.82869E-02  0.18215E-01
  0.26269E-01  0.31869E-01  0.34805E-01  0.35201E-01  0.33421E-01  0.29927E-01
  0.25162E-01  0.19511E-01  0.13331E-01  0.69705E-02  0.75376E-03 -0.50325E-02
 -0.10110E-01 -0.14181E-01 -0.16954E-01 -0.18233E-01  0.17875E-01  0.21740E-01
  0.24368E-01  0.25273E-01  0.24167E-01  0.21028E-01  0.16075E-01  0.96696E-02
  0.22149E-02 -0.58927E-02 -0.14254E-01 -0.22462E-01 -0.30103E-01 -0.36750E-01
 -0.41917E-01 -0.45030E-01 -0.45492E-01 -0.42814E-01 -0.36792E-01 -0.27621E-01
 -0.15953E-01 -0.28457E-02  0.10379E-01  0.22380E-01  0.32052E-01  0.38699E-01
  0.42084E-01  0.42371E-01  0.40009E-01  0.35582E-01  0.29670E-01  0.22770E-01
  0.15298E-01  0.76367E-02  0.15815E-03 -0.67721E-02 -0.12796E-01 -0.17560E-01
 -0.20745E-01 -0.22145E-01  0.20990E-01  0.25572E-01  0.28786E-01  0.29994E-01
  0.28812E-01  0.25196E-01  0.19392E-01  0.11806E-01  0.29169E-02 -0.67586E-02
 -0.16706E-01 -0.26463E-01 -0.35607E-01 -0.43661E-01 -0.49995E-01 -0.53855E-01
 -0.54492E-01 -0.51333E-01 -0.44126E-01 -0.33071E-01 -0.18925E-01 -0.29913E-02
  0.13064E-01  0.27546E-01  0.39092E-01  0.46894E-01  0.50724E-01  0.50814E-01
  0.47715E-01  0.42157E-01  0.34901E-01  0.26592E-01  0.17709E-01  0.86411E-02
 -0.21012E-03 -0.83915E-02 -0.15447E-01 -0.20963E-01 -0.24596E-01 -0.26118E-01
  0.23685E-01  0.29134E-01  0.33101E-01  0.34716E-01  0.33464E-01  0.29309E-01
  0.22566E-01  0.13716E-01  0.33188E-02 -0.79979E-02 -0.19620E-01 -0.31044E-01
 -0.41838E-01 -0.51443E-01 -0.59065E-01 -0.63767E-01 -0.64670E-01 -0.61092E-01
 -0.52658E-01 -0.39483E-01 -0.22400E-01 -0.30277E-02  0.16476E-01  0.33913E-01
  0.47572E-01  0.56547E-01  0.60703E-01  0.60440E-01  0.56456E-01  0.49620E-01
  0.40864E-01  0.30995E-01  0.20579E-01  0.10020E-01 -0.26182E-03 -0.97447E-02
 -0.17892E-01 -0.24237E-01 -0.28385E-01 -0.30046E-01  0.25704E-01  0.32133E-01
  0.37016E-01  0.39163E-01  0.37872E-01  0.33124E-01  0.25369E-01  0.15218E-01
  0.33178E-02 -0.96330E-02 -0.22966E-01 -0.36142E-01 -0.48671E-01 -0.59882E-01
 -0.68835E-01 -0.74476E-01 -0.75811E-01 -0.71971E-01 -0.62317E-01 -0.46792E-01
 -0.26325E-01 -0.29431E-02  0.20585E-01  0.41433E-01  0.57445E-01  0.67575E-01