   8   8   1   0
  0.5260920E+02  0.4929417E-09  0.4929417E-09  0.2000000E-08  0.5000000E-15
   1.0000000000000000E-004
  CAR 
 C                                       
      5.00000000    -15.00000000 3000     -2.74266643      1.00000000
    -15.000  0.1510E+04  0.1007E+02
    -14.993  0.2768E+00  0.1007E+02
    -14.987  0.1126E+01  0.1008E+02
    -14.980  0.2125E+01  0.1010E+02
    -14.973  0.2355E+01  0.1011E+02
    -14.967  0.2340E+01  0.1013E+02
    -14.960  0.1799E+01  0.1014E+02
    -14.953  0.7142E+00  0.1014E+02
    -14.947  0.1272E+00  0.1015E+02
    -14.940  0.9837E-02  0.1015E+02
    -14.933  0.3263E-03  0.1015E+02
    -14.927  0.4600E-05  0.1015E+02
    -14.920  0.2738E-07  0.1015E+02
    -14.913  0.6838E-10  0.1015E+02
    -14.907  0.2031E-12  0.1015E+02
    -14.900  0.1172E-09  0.1015E+02
    -14.893  0.4359E-07  0.1015E+02
    -14.887  0.6809E-05  0.1015E+02
    -14.880  0.4492E-03  0.1015E+02
    -14.873  0.1260E-01  0.1015E+02
    -14.867  0.1517E+00  0.1015E+02
    -14.860  0.7895E+00  0.1015E+02
    -14.853  0.1791E+01  0.1016E+02
    -14.847  0.1777E+01  0.1018E+02
    -14.840  0.7719E+00  0.1018E+02
    -14.833  0.1461E+00  0.1018E+02
    -14.827  0.1196E-01  0.1018E+02
    -14.820  0.6550E-03  0.1018E+02
    -14.813  0.8859E-02  0.1018E+02
    -14.807  0.1422E+00  0.1018E+02
    -14.800  0.9857E+00  0.1019E+02
    -14.793  0.2970E+01  0.1021E+02
    -14.787  0.3913E+01  0.1024E+02
    -14.780  0.2295E+01  0.1025E+02
    -14.773  0.9852E+00  0.1026E+02
    -14.767  0.1965E+01  0.1027E+02
    -14.760  0.3784E+01  0.1030E+02
    -14.753  0.3303E+01  0.1032E+02
    -14.747  0.1449E+01  0.1033E+02
    -14.740  0.1437E+01  0.1034E+02
    -14.733  0.3456E+01  0.1036E+02
    -14.727  0.4718E+01  0.1039E+02
    -14.720  0.3822E+01  0.1042E+02
    -14.713  0.2114E+01  0.1043E+02
    -14.707  0.7002E+00  0.1044E+02
    -14.700  0.1141E+00  0.1044E+02
    -14.693  0.8319E-02  0.1044E+02
    -14.687  0.2621E-03  0.1044E+02
    -14.680  0.3517E-05  0.1044E+02
    -14.673  0.1992E-07  0.1044E+02
    -14.667  0.4735E-10  0.1044E+02
    -14.660  0.4722E-13  0.1044E+02
    -14.653  0.0000E+00  0.1044E+02
    -14.647  0.0000E+00  0.1044E+02
    -14.640  0.1150E-13  0.1044E+02
    -14.633  0.1376E-10  0.1044E+02
    -14.627  0.6819E-08  0.1044E+02
    -14.620  0.1417E-05  0.1044E+02
    -14.613  0.1241E-03  0.1044E+02
    -14.607  0.4613E-02  0.1044E+02
    -14.600  0.7331E-01  0.1044E+02
    -14.593  0.5026E+00  0.1044E+02
    -14.587  0.1498E+01  0.1045E+02
    -14.580  0.1952E+01  0.1046E+02
    -14.573  0.1114E+01  0.1047E+02
    -14.567  0.2773E+00  0.1047E+02
    -14.560  0.2994E-01  0.1047E+02
    -14.553  0.1390E-02  0.1047E+02
    -14.547  0.2752E-04  0.1047E+02
    -14.540  0.2306E-06  0.1047E+02
    -14.533  0.8131E-09  0.1047E+02
    -14.527  0.3799E-09  0.1047E+02
    -14.520  0.1197E-06  0.1047E+02
    -14.513  0.1591E-04  0.1047E+02
    -14.507  0.8942E-03  0.1047E+02
    -14.500  0.2140E-01  0.1047E+02
    -14.493  0.2201E+00  0.1047E+02
    -14.486  0.9808E+00  0.1048E+02
    -14.480  0.1926E+01  0.1049E+02
    -14.473  0.1895E+01  0.1051E+02
    -14.466  0.2096E+01  0.1052E+02
    -14.460  0.3679E+01  0.1054E+02
    -14.453  0.4119E+01  0.1057E+02
    -14.446  0.3117E+01  0.1059E+02
    -14.440  0.2278E+01  0.1061E+02
    -14.433  0.1158E+01  0.1062E+02
    -14.426  0.2863E+00  0.1062E+02
    -14.420  0.3123E-01  0.1062E+02
    -14.413  0.1469E-02  0.1062E+02
    -14.406  0.3196E-04  0.1062E+02
    -14.400  0.2225E-03  0.1062E+02
    -14.393  0.8455E-02  0.1062E+02
    -14.386  0.1375E+00  0.1062E+02
    -14.380  0.9644E+00  0.1063E+02
    -14.373  0.2940E+01  0.1065E+02
    -14.366  0.3918E+01  0.1067E+02
    -14.360  0.2286E+01  0.1069E+02
    -14.353  0.5824E+00  0.1069E+02
    -14.346  0.6434E-01  0.1069E+02
    -14.340  0.3058E-02  0.1069E+02
    -14.333  0.7228E-04  0.1069E+02
    -14.326  0.6460E-03  0.1069E+02
    -14.320  0.1764E-01  0.1069E+02
    -14.313  0.2176E+00  0.1069E+02
    -14.306  0.1271E+01  0.1070E+02
    -14.300  0.3691E+01  0.1073E+02
    -14.293  0.5458E+01  0.1076E+02
    -14.286  0.4032E+01  0.1079E+02
    -14.280  0.1424E+01  0.1080E+02
    -14.273  0.2302E+00  0.1080E+02
    -14.266  0.1650E-01  0.1080E+02
    -14.260  0.5127E-03  0.1080E+02
    -14.253  0.6808E-05  0.1080E+02
    -14.246  0.3824E-07  0.1080E+02
    -14.240  0.9022E-10  0.1080E+02
    -14.233  0.8899E-13  0.1080E+02
    -14.226  0.0000E+00  0.1080E+02
    -14.220  0.0000E+00  0.1080E+02
    -14.213  0.0000E+00  0.1080E+02
    -14.206  0.4307E-12  0.1080E+02
    -14.200  0.3788E-09  0.1080E+02
    -14.193  0.1393E-06  0.1080E+02
    -14.186  0.2152E-04  0.1080E+02
    -14.180  0.1404E-02  0.1080E+02
    -14.173  0.3901E-01  0.1080E+02
    -14.166  0.4649E+00  0.1080E+02
    -14.160  0.2398E+01  0.1082E+02
    -14.153  0.5392E+01  0.1086E+02
    -14.146  0.5309E+01  0.1089E+02
    -14.140  0.2288E+01  0.1091E+02
    -14.133  0.4297E+00  0.1091E+02
    -14.126  0.3492E-01  0.1091E+02
    -14.120  0.1217E-02  0.1091E+02
    -14.113  0.1806E-04  0.1091E+02
    -14.106  0.1132E-06  0.1091E+02
    -14.100  0.2978E-09  0.1091E+02
    -14.093  0.3281E-12  0.1091E+02
    -14.086  0.0000E+00  0.1091E+02
    -14.080  0.0000E+00  0.1091E+02
    -14.073  0.0000E+00  0.1091E+02
    -14.066  0.0000E+00  0.1091E+02
    -14.060  0.6054E-15  0.1091E+02
    -14.053  0.9910E-12  0.1091E+02
    -14.046  0.6881E-09  0.1091E+02
    -14.040  0.1999E-06  0.1091E+02
    -14.033  0.2443E-04  0.1091E+02
    -14.026  0.1263E-02  0.1091E+02
    -14.020  0.2785E-01  0.1091E+02
    -14.013  0.2639E+00  0.1091E+02
    -14.006  0.1084E+01  0.1092E+02
    -14.000  0.1945E+01  0.1093E+02
    -13.993  0.1555E+01  0.1094E+02
    -13.986  0.7994E+00  0.1095E+02
    -13.980  0.1189E+01  0.1095E+02
    -13.973  0.1956E+01  0.1097E+02
    -13.966  0.1501E+01  0.1098E+02
    -13.960  0.5099E+00  0.1098E+02
    -13.953  0.1694E+00  0.1098E+02
    -13.946  0.7649E+00  0.1099E+02
    -13.940  0.2624E+01  0.1101E+02
    -13.933  0.3956E+01  0.1103E+02
    -13.926  0.2612E+01  0.1105E+02
    -13.920  0.7532E+00  0.1105E+02
    -13.913  0.9432E-01  0.1105E+02
    -13.906  0.5087E-02  0.1105E+02
    -13.900  0.1172E-03  0.1105E+02
    -13.893  0.1195E-05  0.1105E+02
    -13.886  0.8870E-05  0.1105E+02
    -13.880  0.6394E-03  0.1105E+02
    -13.873  0.1978E-01  0.1105E+02
    -13.866  0.2678E+00  0.1106E+02
    -13.860  0.1643E+01  0.1107E+02
    -13.853  0.4877E+01  0.1110E+02
    -13.846  0.7794E+01  0.1115E+02
    -13.840  0.7356E+01  0.1120E+02
    -13.833  0.4011E+01  0.1123E+02
    -13.826  0.1134E+01  0.1124E+02
    -13.820  0.1514E+00  0.1124E+02
    -13.813  0.9060E-02  0.1124E+02
    -13.806  0.2360E-03  0.1124E+02
    -13.800  0.2630E-05  0.1124E+02
    -13.793  0.1241E-07  0.1124E+02
    -13.786  0.2460E-10  0.1124E+02
    -13.780  0.1998E-13  0.1124E+02
    -13.773  0.0000E+00  0.1124E+02
    -13.766  0.0000E+00  0.1124E+02
    -13.760  0.0000E+00  0.1124E+02
    -13.753  0.0000E+00  0.1124E+02
    -13.746  0.1211E-14  0.1124E+02
    -13.740  0.1593E-11  0.1124E+02
    -13.733  0.1042E-08  0.1124E+02
    -13.726  0.2854E-06  0.1124E+02
    -13.720  0.3288E-04  0.1124E+02
    -13.713  0.1604E-02  0.1124E+02
    -13.706  0.3335E-01  0.1124E+02
    -13.700  0.2984E+00  0.1124E+02
    -13.693  0.1158E+01  0.1125E+02
    -13.686  0.1962E+01  0.1126E+02
    -13.680  0.1456E+01  0.1127E+02
    -13.673  0.4721E+00  0.1127E+02
    -13.666  0.6654E-01  0.1127E+02
    -13.660  0.4044E-02  0.1127E+02
    -13.653  0.1051E-03  0.1127E+02
    -13.646  0.1158E-05  0.1127E+02
    -13.640  0.5377E-08  0.1127E+02
    -13.633  0.1047E-10  0.1127E+02
    -13.626  0.6464E-11  0.1127E+02
    -13.620  0.3861E-08  0.1127E+02
    -13.613  0.9671E-06  0.1127E+02
    -13.606  0.1020E-03  0.1127E+02
    -13.600  0.4554E-02  0.1127E+02
    -13.593  0.8683E-01  0.1127E+02
    -13.586  0.7128E+00  0.1128E+02
    -13.580  0.2540E+01  0.1130E+02
    -13.573  0.3954E+01  0.1132E+02
    -13.566  0.2695E+01  0.1134E+02
    -13.560  0.8025E+00  0.1134E+02
    -13.553  0.1044E+00  0.1135E+02
    -13.546  0.2145E-01  0.1135E+02
    -13.540  0.1770E+00  0.1135E+02
    -13.533  0.8646E+00  0.1135E+02
    -13.526  0.1842E+01  0.1136E+02
    -13.520  0.1718E+01  0.1138E+02
    -13.513  0.7187E+00  0.1138E+02
    -13.506  0.3620E+00  0.1138E+02
    -13.499  0.1371E+01  0.1139E+02
    -13.493  0.3399E+01  0.1142E+02
    -13.486  0.3711E+01  0.1144E+02
    -13.479  0.1774E+01  0.1145E+02
    -13.473  0.3873E+00  0.1145E+02
    -13.466  0.2261E+00  0.1146E+02
    -13.459  0.9100E+00  0.1146E+02
    -13.453  0.1868E+01  0.1147E+02
    -13.446  0.1681E+01  0.1149E+02
    -13.439  0.6617E+00  0.1149E+02
    -13.433  0.1134E+00  0.1149E+02
    -13.426  0.8396E-02  0.1149E+02
    -13.419  0.2664E-03  0.1149E+02
    -13.413  0.2267E-04  0.1149E+02
    -13.406  0.1182E-02  0.1149E+02
    -13.399  0.3116E-01  0.1149E+02
    -13.393  0.3525E+00  0.1149E+02
    -13.386  0.1731E+01  0.1151E+02
    -13.379  0.3799E+01  0.1153E+02
    -13.373  0.4428E+01  0.1156E+02
    -13.366  0.5053E+01  0.1159E+02
    -13.359  0.6150E+01  0.1163E+02
    -13.353  0.4216E+01  0.1166E+02
    -13.346  0.1312E+01  0.1167E+02
    -13.339  0.1789E+00  0.1167E+02
    -13.333  0.1075E-01  0.1167E+02
    -13.326  0.6400E-02  0.1167E+02
    -13.319  0.9036E-01  0.1167E+02
    -13.313  0.5775E+00  0.1168E+02
    -13.306  0.1660E+01  0.1169E+02
    -13.299  0.2553E+01  0.1171E+02
    -13.293  0.3526E+01  0.1173E+02
    -13.286  0.5192E+01  0.1176E+02
    -13.279  0.5940E+01  0.1180E+02
    -13.273  0.4818E+01  0.1184E+02
    -13.266  0.2323E+01  0.1185E+02
    -13.259  0.7342E+00  0.1186E+02
    -13.253  0.9794E+00  0.1186E+02
    -13.246  0.1964E+01  0.1188E+02
    -13.239  0.2240E+01  0.1189E+02
    -13.233  0.2232E+01  0.1191E+02
    -13.226  0.2035E+01  0.1192E+02
    -13.219  0.1035E+01  0.1193E+02
    -13.213  0.2503E+00  0.1193E+02
    -13.206  0.1644E+00  0.1193E+02
    -13.199  0.7913E+00  0.1193E+02
    -13.193  0.2118E+01  0.1195E+02
    -13.186  0.3090E+01  0.1197E+02
    -13.179  0.2794E+01  0.1199E+02
    -13.173  0.1501E+01  0.1200E+02
    -13.166  0.4525E+00  0.1200E+02
    -13.159  0.4070E+00  0.1200E+02
    -13.153  0.1272E+01  0.1201E+02
    -13.146  0.1977E+01  0.1202E+02
    -13.139  0.1349E+01  0.1203E+02
    -13.133  0.4020E+00  0.1204E+02
    -13.126  0.5287E-01  0.1204E+02
    -13.119  0.2327E-01  0.1204E+02
    -13.113  0.2127E+00  0.1204E+02
    -13.106  0.9612E+00  0.1204E+02
    -13.099  0.1895E+01  0.1206E+02
    -13.093  0.1636E+01  0.1207E+02
    -13.086  0.6176E+00  0.1207E+02
    -13.079  0.1015E+00  0.1207E+02
    -13.073  0.7268E-02  0.1207E+02
    -13.066  0.3531E-02  0.1207E+02
    -13.059  0.6836E-01  0.1207E+02
    -13.053  0.6068E+00  0.1208E+02
    -13.046  0.2338E+01  0.1209E+02
    -13.039  0.3947E+01  0.1212E+02
    -13.033  0.3094E+01  0.1214E+02
    -13.026  0.1932E+01  0.1215E+02
    -13.019  0.2607E+01  0.1217E+02
    -13.013  0.3754E+01  0.1220E+02
    -13.006  0.4170E+01  0.1222E+02
    -12.999  0.3133E+01  0.1224E+02
    -12.993  0.1312E+01  0.1225E+02
    -12.986  0.2713E+00  0.1225E+02
    -12.979  0.2593E-01  0.1225E+02
    -12.973  0.1100E-02  0.1225E+02
    -12.966  0.2018E-04  0.1225E+02
    -12.959  0.2949E-06  0.1225E+02
    -12.953  0.1788E-04  0.1225E+02
    -12.946  0.9922E-03  0.1225E+02
    -12.939  0.2383E-01  0.1225E+02
    -12.933  0.2560E+00  0.1226E+02
    -12.926  0.1310E+01  0.1227E+02
    -12.919  0.3499E+01  0.1229E+02
    -12.913  0.5237E+01  0.1232E+02
    -12.906  0.4576E+01  0.1235E+02
    -12.899  0.3109E+01  0.1237E+02
    -12.893  0.2760E+01  0.1239E+02
    -12.886  0.2718E+01  0.1241E+02
    -12.879  0.2283E+01  0.1243E+02
    -12.873  0.1170E+01  0.1243E+02
    -12.866  0.2942E+00  0.1244E+02
    -12.859  0.1252E+00  0.1244E+02
    -12.853  0.5895E+00  0.1244E+02
    -12.846  0.1603E+01  0.1245E+02
    -12.839  0.1912E+01  0.1246E+02
    -12.833  0.9981E+00  0.1247E+02
    -12.826  0.2273E+00  0.1247E+02
    -12.819  0.2242E-01  0.1247E+02
    -12.813  0.9567E-03  0.1247E+02
    -12.806  0.4327E-03  0.1247E+02
    -12.799  0.1187E-01  0.1247E+02
    -12.793  0.1453E+00  0.1247E+02
    -12.786  0.7695E+00  0.1248E+02
    -12.779  0.1775E+01  0.1249E+02
    -12.773  0.1793E+01  0.1250E+02
    -12.766  0.7920E+00  0.1251E+02
    -12.759  0.1525E+00  0.1251E+02
    -12.753  0.1270E-01  0.1251E+02
    -12.746  0.4534E-03  0.1251E+02
    -12.739  0.6887E-05  0.1251E+02
    -12.733  0.4418E-07  0.1251E+02
    -12.726  0.1648E-09  0.1251E+02
    -12.719  0.1935E-07  0.1251E+02
    -12.713  0.3431E-05  0.1251E+02
    -12.706  0.2567E-03  0.1251E+02
    -12.699  0.8165E-02  0.1251E+02
    -12.693  0.1115E+00  0.1251E+02
    -12.686  0.6655E+00  0.1251E+02
    -12.679  0.1822E+01  0.1253E+02
    -12.673  0.2672E+01  0.1254E+02
    -12.666  0.2908E+01  0.1256E+02
    -12.659  0.2928E+01  0.1258E+02
    -12.653  0.2688E+01  0.1260E+02
    -12.646  0.1799E+01  0.1261E+02
    -12.639  0.6420E+00  0.1262E+02
    -12.633  0.1051E+00  0.1262E+02
    -12.626  0.7524E-02  0.1262E+02
    -12.619  0.4127E-03  0.1262E+02
    -12.613  0.7208E-02  0.1262E+02
    -12.606  0.1222E+00  0.1262E+02
    -12.599  0.8932E+00  0.1263E+02
    -12.593  0.2837E+01  0.1264E+02
    -12.586  0.3939E+01  0.1267E+02
    -12.579  0.2394E+01  0.1269E+02
    -12.573  0.6355E+00  0.1269E+02
    -12.566  0.7319E-01  0.1269E+02
    -12.559  0.4137E-02  0.1269E+02
    -12.553  0.1400E-01  0.1269E+02
    -12.546  0.1640E+00  0.1269E+02
    -12.539  0.8524E+00  0.1270E+02
    -12.533  0.2090E+01  0.1271E+02
    -12.526  0.2861E+01  0.1273E+02
    -12.519  0.2691E+01  0.1275E+02
    -12.513  0.1638E+01  0.1276E+02
    -12.506  0.5214E+00  0.1276E+02
    -12.499  0.1572E+00  0.1276E+02
    -12.492  0.5487E+00  0.1277E+02
    -12.486  0.1551E+01  0.1278E+02
    -12.479  0.1934E+01  0.1279E+02
    -12.472  0.1056E+01  0.1280E+02
    -12.466  0.2705E+00  0.1280E+02
    -12.459  0.2740E+00  0.1280E+02
    -12.452  0.1399E+01  0.1281E+02
    -12.446  0.3432E+01  0.1283E+02
    -12.439  0.3687E+01  0.1286E+02
    -12.432  0.1733E+01  0.1287E+02
    -12.426  0.3551E+00  0.1287E+02
    -12.419  0.3150E-01  0.1287E+02
    -12.412  0.1267E-02  0.1287E+02
    -12.406  0.3087E-02  0.1287E+02
    -12.399  0.6011E-01  0.1287E+02
    -12.392  0.5239E+00  0.1288E+02
    -12.386  0.2065E+01  0.1289E+02
    -12.379  0.3730E+01  0.1292E+02
    -12.372  0.3107E+01  0.1294E+02
    -12.366  0.1191E+01  0.1294E+02
    -12.359  0.2082E+00  0.1295E+02
    -12.352  0.1633E-01  0.1295E+02
    -12.346  0.5647E-03  0.1295E+02
    -12.339  0.8510E-05  0.1295E+02
    -12.332  0.5386E-05  0.1295E+02
    -12.326  0.3680E-03  0.1295E+02
    -12.319  0.1080E-01  0.1295E+02
    -12.312  0.1359E+00  0.1295E+02
    -12.306  0.7400E+00  0.1295E+02
    -12.299  0.1773E+01  0.1296E+02
    -12.292  0.2043E+01  0.1298E+02
    -12.286  0.1824E+01  0.1299E+02
    -12.279  0.2076E+01  0.1300E+02
    -12.272  0.1615E+01  0.1301E+02
    -12.266  0.5868E+00  0.1302E+02
    -12.259  0.1045E+00  0.1302E+02
    -12.252  0.1461E+00  0.1302E+02
    -12.246  0.7518E+00  0.1302E+02
    -12.239  0.1761E+01  0.1304E+02
    -12.232  0.1806E+01  0.1305E+02
    -12.226  0.8103E+00  0.1305E+02
    -12.219  0.1585E+00  0.1305E+02
    -12.212  0.1340E-01  0.1305E+02
    -12.206  0.4864E-03  0.1305E+02
    -12.199  0.7508E-05  0.1305E+02
    -12.192  0.4896E-07  0.1305E+02
    -12.186  0.2896E-08  0.1305E+02
    -12.179  0.7271E-06  0.1305E+02
    -12.172  0.8065E-04  0.1305E+02
    -12.166  0.3800E-02  0.1305E+02
    -12.159  0.7699E-01  0.1306E+02
    -12.152  0.6828E+00  0.1306E+02
    -12.146  0.2727E+01  0.1308E+02
    -12.139  0.5123E+01  0.1311E+02
    -12.132  0.4787E+01  0.1314E+02
    -12.126  0.2402E+01  0.1316E+02
    -12.119  0.1146E+01  0.1317E+02
    -12.112  0.1658E+01  0.1318E+02
    -12.106  0.2008E+01  0.1319E+02
    -12.099  0.1564E+01  0.1320E+02
    -12.092  0.1786E+01  0.1321E+02
    -12.086  0.1959E+01  0.1323E+02
    -12.079  0.1059E+01  0.1323E+02
    -12.072  0.2525E+00  0.1324E+02
    -12.066  0.2612E-01  0.1324E+02
    -12.059  0.1161E-02  0.1324E+02
    -12.052  0.2200E-04  0.1324E+02
    -12.046  0.1764E-06  0.1324E+02
    -12.039  0.5946E-09  0.1324E+02
    -12.032  0.5757E-10  0.1324E+02
    -12.026  0.2556E-07  0.1324E+02
    -12.019  0.4830E-05  0.1324E+02
    -12.012  0.3849E-03  0.1324E+02
    -12.006  0.1303E-01  0.1324E+02
    -11.999  0.1887E+00  0.1324E+02
    -11.992  0.1180E+01  0.1325E+02
    -11.986  0.3211E+01  0.1327E+02
    -11.979  0.3822E+01  0.1329E+02
    -11.972  0.1991E+01  0.1331E+02
    -11.966  0.4528E+00  0.1331E+02
    -11.959  0.5141E-01  0.1331E+02
    -11.952  0.9973E-01  0.1331E+02
    -11.946  0.6043E+00  0.1331E+02
    -11.939  0.1637E+01  0.1332E+02
    -11.932  0.2086E+01  0.1334E+02
    -11.926  0.1861E+01  0.1335E+02
    -11.919  0.2072E+01  0.1336E+02
    -11.912  0.1725E+01  0.1338E+02
    -11.906  0.6859E+00  0.1338E+02
    -11.899  0.1200E+00  0.1338E+02
    -11.892  0.9078E-02  0.1338E+02
    -11.886  0.2972E-03  0.1338E+02
    -11.879  0.2255E-03  0.1338E+02
    -11.872  0.7269E-02  0.1338E+02
    -11.866  0.1022E+00  0.1338E+02
    -11.859  0.6204E+00  0.1339E+02
    -11.852  0.1644E+01  0.1340E+02
    -11.846  0.1974E+01  0.1341E+02
    -11.839  0.1492E+01  0.1342E+02
    -11.832  0.1750E+01  0.1343E+02
    -11.826  0.1959E+01  0.1345E+02
    -11.819  0.1071E+01  0.1345E+02
    -11.812  0.2577E+00  0.1345E+02
    -11.806  0.2822E-01  0.1345E+02
    -11.799  0.3001E-01  0.1345E+02
    -11.792  0.2700E+00  0.1346E+02
    -11.786  0.1098E+01  0.1346E+02
    -11.779  0.1948E+01  0.1348E+02
    -11.772  0.1513E+01  0.1349E+02
    -11.766  0.5138E+00  0.1349E+02
    -11.759  0.7588E-01  0.1349E+02
    -11.752  0.5340E-02  0.1349E+02
    -11.746  0.1399E-01  0.1349E+02
    -11.739  0.1639E+00  0.1349E+02
    -11.732  0.8608E+00  0.1350E+02
    -11.726  0.2177E+01  0.1351E+02
    -11.719  0.3372E+01  0.1353E+02
    -11.712  0.4948E+01  0.1357E+02
    -11.706  0.7429E+01  0.1362E+02
    -11.699  0.7841E+01  0.1367E+02
    -11.692  0.4486E+01  0.1370E+02
    -11.686  0.1253E+01  0.1371E+02
    -11.679  0.1627E+00  0.1371E+02
    -11.672  0.9506E-02  0.1371E+02
    -11.666  0.2438E-03  0.1371E+02
    -11.659  0.2848E-05  0.1371E+02
    -11.652  0.1978E-04  0.1371E+02
    -11.646  0.1082E-02  0.1371E+02
    -11.639  0.2576E-01  0.1371E+02
    -11.632  0.2766E+00  0.1371E+02
    -11.626  0.1421E+01  0.1372E+02
    -11.619  0.3757E+01  0.1375E+02
    -11.612  0.5319E+01  0.1378E+02
    -11.606  0.3913E+01  0.1381E+02
    -11.599  0.1398E+01  0.1382E+02
    -11.592  0.2291E+00  0.1382E+02
    -11.586  0.1660E-01  0.1382E+02
    -11.579  0.5202E-03  0.1382E+02
    -11.572  0.4429E-04  0.1382E+02
    -11.566  0.2035E-02  0.1382E+02
    -11.559  0.4729E-01  0.1382E+02
    -11.552  0.4740E+00  0.1382E+02
    -11.546  0.2088E+01  0.1384E+02
    -11.539  0.4242E+01  0.1386E+02
    -11.532  0.4519E+01  0.1389E+02
    -11.526  0.3122E+01  0.1391E+02
    -11.519  0.1450E+01  0.1392E+02
    -11.512  0.3684E+00  0.1393E+02
    -11.506  0.4373E-01  0.1393E+02
    -11.499  0.2278E-02  0.1393E+02
    -11.492  0.5257E-04  0.1393E+02
    -11.485  0.1413E-03  0.1393E+02
    -11.479  0.5095E-02  0.1393E+02
    -11.472  0.7886E-01  0.1393E+02
    -11.465  0.5266E+00  0.1393E+02
    -11.459  0.1529E+01  0.1394E+02
    -11.452  0.1942E+01  0.1395E+02
    -11.445  0.1080E+01  0.1396E+02
    -11.439  0.2623E+00  0.1396E+02
    -11.432  0.3785E-01  0.1396E+02
    -11.425  0.1325E+00  0.1396E+02
    -11.419  0.7247E+00  0.1397E+02
    -11.412  0.1764E+01  0.1398E+02
    -11.405  0.2136E+01  0.1400E+02
    -11.399  0.2439E+01  0.1401E+02
    -11.392  0.3765E+01  0.1404E+02
    -11.385  0.3554E+01  0.1406E+02
    -11.379  0.1524E+01  0.1407E+02
    -11.372  0.2858E+00  0.1407E+02
    -11.365  0.2319E-01  0.1407E+02
    -11.359  0.9401E-03  0.1407E+02
    -11.352  0.4905E-02  0.1407E+02
    -11.345  0.7656E-01  0.1407E+02
    -11.339  0.5167E+00  0.1408E+02
    -11.332  0.1517E+01  0.1409E+02
    -11.325  0.1946E+01  0.1410E+02
    -11.319  0.1097E+01  0.1411E+02
    -11.312  0.3403E+00  0.1411E+02
    -11.305  0.7653E+00  0.1411E+02
    -11.299  0.3392E+01  0.1414E+02
    -11.292  0.7190E+01  0.1419E+02
    -11.285  0.7444E+01  0.1423E+02
    -11.279  0.4657E+01  0.1427E+02
    -11.272  0.2510E+01  0.1428E+02
    -11.265  0.1022E+01  0.1429E+02
    -11.259  0.2170E+00  0.1429E+02
    -11.252  0.2070E-01  0.1429E+02
    -11.245  0.8541E-03  0.1429E+02
    -11.239  0.1503E-04  0.1429E+02
    -11.232  0.1118E-06  0.1429E+02
    -11.225  0.3498E-09  0.1429E+02
    -11.219  0.4577E-12  0.1429E+02
    -11.212  0.0000E+00  0.1429E+02
    -11.205  0.0000E+00  0.1429E+02
    -11.199  0.0000E+00  0.1429E+02
    -11.192  0.0000E+00  0.1429E+02
    -11.185  0.1937E-13  0.1429E+02
    -11.179  0.2378E-10  0.1429E+02
    -11.172  0.1251E-07  0.1429E+02
    -11.165  0.2768E-05  0.1429E+02
    -11.159  0.2589E-03  0.1429E+02
    -11.152  0.1032E-01  0.1429E+02
    -11.145  0.1772E+00  0.1429E+02
    -11.139  0.1331E+01  0.1430E+02
    -11.132  0.4482E+01  0.1433E+02
    -11.125  0.7100E+01  0.1438E+02
    -11.119  0.5905E+01  0.1442E+02
    -11.112  0.3908E+01  0.1444E+02
    -11.105  0.4072E+01  0.1447E+02
    -11.099  0.3709E+01  0.1450E+02
    -11.092  0.1663E+01  0.1451E+02
    -11.085  0.3298E+00  0.1451E+02
    -11.079  0.2835E-01  0.1451E+02
    -11.072  0.1046E-02  0.1451E+02
    -11.065  0.1641E-04  0.1451E+02
    -11.059  0.1088E-06  0.1451E+02
    -11.052  0.3030E-09  0.1451E+02
    -11.045  0.3523E-12  0.1451E+02
    -11.039  0.0000E+00  0.1451E+02
    -11.032  0.5236E-13  0.1451E+02
    -11.025  0.5197E-10  0.1451E+02
    -11.019  0.2159E-07  0.1451E+02
    -11.012  0.3764E-05  0.1451E+02
    -11.005  0.2769E-03  0.1451E+02
    -10.999  0.8656E-02  0.1451E+02
    -10.992  0.1159E+00  0.1451E+02
    -10.985  0.6707E+00  0.1451E+02
    -10.979  0.1690E+01  0.1453E+02
    -10.972  0.1867E+01  0.1454E+02
    -10.965  0.9678E+00  0.1454E+02
    -10.959  0.6746E+00  0.1455E+02
    -10.952  0.1494E+01  0.1456E+02
    -10.945  0.1998E+01  0.1457E+02
    -10.939  0.1604E+01  0.1458E+02
    -10.932  0.2677E+01  0.1460E+02
    -10.925  0.5395E+01  0.1464E+02
    -10.919  0.5308E+01  0.1467E+02
    -10.912  0.2313E+01  0.1469E+02
    -10.905  0.4424E+00  0.1469E+02
    -10.899  0.3960E-01  0.1469E+02
    -10.892  0.5099E-01  0.1469E+02
    -10.885  0.3897E+00  0.1469E+02
    -10.879  0.1328E+01  0.1470E+02
    -10.872  0.1978E+01  0.1472E+02
    -10.865  0.1289E+01  0.1472E+02
    -10.859  0.3672E+00  0.1473E+02
    -10.852  0.4541E-01  0.1473E+02
    -10.845  0.2418E-02  0.1473E+02
    -10.839  0.5496E-04  0.1473E+02
    -10.832  0.7041E-06  0.1473E+02
    -10.825  0.2444E-04  0.1473E+02
    -10.819  0.1445E-02  0.1473E+02
    -10.812  0.3635E-01  0.1473E+02
    -10.805  0.3931E+00  0.1473E+02
    -10.799  0.1851E+01  0.1474E+02
    -10.792  0.3965E+01  0.1477E+02
    -10.785  0.4841E+01  0.1480E+02
    -10.779  0.5777E+01  0.1484E+02
    -10.772  0.6076E+01  0.1488E+02
    -10.765  0.3380E+01  0.1490E+02
    -10.759  0.8462E+00  0.1491E+02
    -10.752  0.9264E-01  0.1491E+02
    -10.745  0.1131E-01  0.1491E+02
    -10.739  0.1063E+00  0.1491E+02
    -10.732  0.7333E+00  0.1491E+02
    -10.725  0.2365E+01  0.1493E+02
    -10.719  0.3676E+01  0.1496E+02
    -10.712  0.2795E+01  0.1497E+02
    -10.705  0.1030E+01  0.1498E+02
    -10.699  0.1786E+00  0.1498E+02
    -10.692  0.1410E-01  0.1498E+02
    -10.685  0.4921E-03  0.1498E+02
    -10.679  0.7426E-05  0.1498E+02
    -10.672  0.4854E-07  0.1498E+02
    -10.665  0.2522E-06  0.1498E+02
    -10.659  0.3322E-04  0.1498E+02
    -10.652  0.1851E-02  0.1498E+02
    -10.645  0.4395E-01  0.1498E+02
    -10.639  0.4482E+00  0.1499E+02
    -10.632  0.1981E+01  0.1500E+02
    -10.625  0.3818E+01  0.1502E+02
    -10.619  0.3245E+01  0.1505E+02
    -10.612  0.1428E+01  0.1505E+02
    -10.605  0.1218E+01  0.1506E+02
    -10.599  0.1937E+01  0.1508E+02
    -10.592  0.1578E+01  0.1509E+02
    -10.585  0.5681E+00  0.1509E+02
    -10.579  0.1367E+00  0.1509E+02
    -10.572  0.3896E+00  0.1509E+02
    -10.565  0.1318E+01  0.1510E+02
    -10.559  0.1978E+01  0.1512E+02
    -10.552  0.1300E+01  0.1512E+02
    -10.545  0.3731E+00  0.1513E+02
    -10.539  0.4702E-01  0.1513E+02
    -10.532  0.2039E-01  0.1513E+02
    -10.525  0.2655E+00  0.1513E+02
    -10.519  0.1700E+01  0.1514E+02
    -10.512  0.4736E+01  0.1517E+02
    -10.505  0.5771E+01  0.1521E+02
    -10.498  0.3111E+01  0.1523E+02
    -10.492  0.1122E+01  0.1524E+02
    -10.485  0.2246E+01  0.1525E+02
    -10.478  0.5167E+01  0.1529E+02
    -10.472  0.5450E+01  0.1532E+02
    -10.465  0.2553E+01  0.1534E+02
    -10.458  0.5280E+00  0.1535E+02
    -10.452  0.4792E-01  0.1535E+02
    -10.445  0.6371E-02  0.1535E+02
    -10.438  0.8139E-01  0.1535E+02
    -10.432  0.6797E+00  0.1535E+02
    -10.425  0.2709E+01  0.1537E+02
    -10.418  0.5254E+01  0.1540E+02
    -10.412  0.4938E+01  0.1544E+02
    -10.405  0.2198E+01  0.1545E+02
    -10.398  0.4504E+00  0.1545E+02
    -10.392  0.5876E-01  0.1545E+02
    -10.385  0.1978E+00  0.1546E+02
    -10.378  0.1002E+01  0.1546E+02
    -10.372  0.2740E+01  0.1548E+02
    -10.365  0.5139E+01  0.1552E+02
    -10.358  0.6939E+01  0.1556E+02
    -10.352  0.6421E+01  0.1560E+02
    -10.345  0.5293E+01  0.1564E+02
    -10.338  0.4038E+01  0.1567E+02
    -10.332  0.3720E+01  0.1569E+02
    -10.325  0.5460E+01  0.1573E+02
    -10.318  0.5247E+01  0.1576E+02
    -10.312  0.2676E+01  0.1578E+02
    -10.305  0.2053E+01  0.1579E+02
    -10.298  0.4048E+01  0.1582E+02
    -10.292  0.5385E+01  0.1586E+02
    -10.285  0.3826E+01  0.1588E+02
    -10.278  0.2137E+01  0.1590E+02
    -10.272  0.3116E+01  0.1592E+02
    -10.265  0.5627E+01  0.1596E+02
    -10.258  0.7397E+01  0.1600E+02
    -10.252  0.6939E+01  0.1605E+02
    -10.245  0.4908E+01  0.1608E+02
    -10.238  0.3379E+01  0.1611E+02
    -10.232  0.3543E+01  0.1613E+02
    -10.225  0.4277E+01  0.1616E+02
    -10.218  0.3633E+01  0.1618E+02
    -10.212  0.3808E+01  0.1621E+02
    -10.205  0.5279E+01  0.1624E+02
    -10.198  0.6992E+01  0.1629E+02
    -10.192  0.1023E+02  0.1636E+02
    -10.185  0.1657E+02  0.1647E+02
    -10.178  0.2853E+02  0.1666E+02
    -10.172  0.3586E+02  0.1690E+02
    -10.165  0.2470E+02  0.1706E+02
    -10.158  0.8299E+01  0.1712E+02
    -10.152  0.1290E+01  0.1713E+02
    -10.145  0.8991E-01  0.1713E+02
    -10.138  0.5139E-02  0.1713E+02
    -10.132  0.4508E-01  0.1713E+02
    -10.125  0.3653E+00  0.1713E+02
    -10.118  0.1287E+01  0.1714E+02
    -10.112  0.1998E+01  0.1715E+02
    -10.105  0.1546E+01  0.1716E+02
    -10.098  0.1358E+01  0.1717E+02
    -10.092  0.1998E+01  0.1718E+02
    -10.085  0.2150E+01  0.1720E+02
    -10.078  0.2999E+01  0.1722E+02
    -10.072  0.5578E+01  0.1726E+02
    -10.065  0.6763E+01  0.1730E+02
    -10.058  0.4628E+01  0.1733E+02
    -10.052  0.1677E+01  0.1734E+02
    -10.045  0.2966E+00  0.1735E+02
    -10.038  0.2410E-01  0.1735E+02
    -10.032  0.8682E-03  0.1735E+02
    -10.025  0.1357E-04  0.1735E+02
    -10.018  0.9093E-07  0.1735E+02
    -10.012  0.1191E-07  0.1735E+02
    -10.005  0.2233E-05  0.1735E+02
     -9.998  0.1805E-03  0.1735E+02
     -9.992  0.6193E-02  0.1735E+02
     -9.985  0.9094E-01  0.1735E+02
     -9.978  0.5766E+00  0.1735E+02
     -9.972  0.1590E+01  0.1736E+02
     -9.965  0.1920E+01  0.1737E+02
     -9.958  0.1052E+01  0.1738E+02
     -9.952  0.5771E+00  0.1738E+02
     -9.945  0.1425E+01  0.1739E+02
     -9.938  0.2867E+01  0.1741E+02
     -9.932  0.3261E+01  0.1743E+02
     -9.925  0.2129E+01  0.1745E+02
     -9.918  0.7347E+00  0.1745E+02
     -9.912  0.1565E+00  0.1745E+02
     -9.905  0.4051E+00  0.1746E+02
     -9.898  0.1929E+01  0.1747E+02
     -9.892  0.4428E+01  0.1750E+02
     -9.885  0.5568E+01  0.1754E+02
     -9.878  0.4861E+01  0.1757E+02
     -9.872  0.3123E+01  0.1759E+02
     -9.865  0.1210E+01  0.1760E+02
     -9.858  0.2430E+00  0.1760E+02
     -9.852  0.1116E+00  0.1760E+02
     -9.845  0.5904E+00  0.1760E+02
     -9.838  0.1789E+01  0.1762E+02
     -9.832  0.2867E+01  0.1764E+02
     -9.825  0.2909E+01  0.1766E+02
     -9.818  0.1888E+01  0.1767E+02
     -9.812  0.6858E+00  0.1767E+02
     -9.805  0.4113E+00  0.1767E+02
     -9.798  0.1374E+01  0.1768E+02
     -9.792  0.3034E+01  0.1770E+02
     -9.785  0.3766E+01  0.1773E+02
     -9.778  0.3317E+01  0.1775E+02
     -9.772  0.2605E+01  0.1777E+02
     -9.765  0.1457E+01  0.1778E+02
     -9.758  0.4185E+00  0.1778E+02
     -9.752  0.5431E-01  0.1778E+02
     -9.745  0.3064E-02  0.1778E+02
     -9.738  0.7494E-04  0.1778E+02
     -9.732  0.9215E-04  0.1778E+02
     -9.725  0.3622E-02  0.1778E+02
     -9.718  0.6133E-01  0.1778E+02
     -9.712  0.4477E+00  0.1779E+02
     -9.705  0.1420E+01  0.1779E+02
     -9.698  0.1969E+01  0.1781E+02
     -9.692  0.1195E+01  0.1782E+02
     -9.685  0.3181E+00  0.1782E+02
     -9.678  0.6410E-01  0.1782E+02
     -9.672  0.2653E+00  0.1782E+02
     -9.665  0.1106E+01  0.1783E+02
     -9.658  0.2246E+01  0.1784E+02
     -9.652  0.3130E+01  0.1786E+02
     -9.645  0.4361E+01  0.1789E+02
     -9.638  0.4874E+01  0.1792E+02
     -9.632  0.4474E+01  0.1795E+02
     -9.625  0.3859E+01  0.1798E+02
     -9.618  0.2640E+01  0.1800E+02
     -9.612  0.2110E+01  0.1801E+02
     -9.605  0.2336E+01  0.1803E+02
     -9.598  0.2305E+01  0.1804E+02
     -9.592  0.2269E+01  0.1806E+02
     -9.585  0.1560E+01  0.1807E+02
     -9.578  0.5240E+00  0.1807E+02
     -9.572  0.9885E-01  0.1807E+02
     -9.565  0.2237E+00  0.1807E+02
     -9.558  0.9768E+00  0.1808E+02
     -9.552  0.1904E+01  0.1809E+02
     -9.545  0.1655E+01  0.1810E+02
     -9.538  0.9221E+00  0.1811E+02
     -9.532  0.1530E+01  0.1812E+02
     -9.525  0.3140E+01  0.1814E+02
     -9.518  0.3455E+01  0.1816E+02
     -9.512  0.1932E+01  0.1818E+02
     -9.505  0.5306E+00  0.1818E+02
     -9.498  0.6912E-01  0.1818E+02