   4   4   0   0
  0.5238761E+02  0.4260000E-09  0.2459512E-09  0.2000000E-08  0.5000000E-15
   1.0000000000000000E-004
  CAR 
 C                                       
      7.92338661    -23.71733396  301     -2.93663154      1.00000000
    -23.717  0.0000E+00  0.0000E+00
    -23.612  0.0000E+00  0.0000E+00
    -23.506  0.0000E+00  0.0000E+00
    -23.401  0.0000E+00  0.0000E+00
    -23.295  0.0000E+00  0.0000E+00
    -23.190  0.0000E+00  0.0000E+00
    -23.085  0.0000E+00  0.0000E+00
    -22.979  0.0000E+00  0.0000E+00
    -22.874  0.0000E+00  0.0000E+00
    -22.768  0.2765E-12  0.2916E-13
    -22.663  0.3456E-08  0.3646E-09
    -22.557  0.4983E-05  0.5259E-06
    -22.452  0.8636E-03  0.9161E-04
    -22.346  0.1943E-01  0.2141E-02
    -22.241  0.6349E-01  0.8837E-02
    -22.135  0.3951E-01  0.1300E-01
    -22.030  0.8828E-01  0.2231E-01
    -21.924  0.2107E+00  0.4454E-01
    -21.819  0.1476E+00  0.6010E-01
    -21.713  0.8375E-01  0.6894E-01
    -21.608  0.2437E+00  0.9464E-01
    -21.502  0.1544E+00  0.1109E+00
    -21.397  0.1503E-01  0.1125E+00
    -21.292  0.1246E-01  0.1138E+00
    -21.186  0.9398E-01  0.1237E+00
    -21.081  0.1102E+00  0.1353E+00
    -20.975  0.2726E-01  0.1382E+00
    -20.870  0.1394E+00  0.1529E+00
    -20.764  0.3864E+00  0.1937E+00
    -20.659  0.1889E+00  0.2136E+00
    -20.553  0.1883E+00  0.2335E+00
    -20.448  0.2285E+00  0.2576E+00
    -20.342  0.4558E-01  0.2624E+00
    -20.237  0.1285E-02  0.2625E+00
    -20.131  0.6153E-05  0.2625E+00
    -20.026  0.4948E-03  0.2626E+00
    -19.920  0.2123E-01  0.2648E+00
    -19.815  0.1633E+00  0.2820E+00
    -19.710  0.3329E+00  0.3171E+00
    -19.604  0.1876E+00  0.3369E+00
    -19.499  0.1573E+00  0.3535E+00
    -19.393  0.2500E+00  0.3799E+00
    -19.288  0.6955E-01  0.3872E+00
    -19.182  0.5291E-02  0.3878E+00
    -19.077  0.4689E-01  0.3927E+00
    -18.971  0.1294E+00  0.4064E+00
    -18.866  0.8542E-01  0.4154E+00
    -18.760  0.2053E+00  0.4370E+00
    -18.655  0.2081E+00  0.4590E+00
    -18.549  0.4712E-01  0.4639E+00
    -18.444  0.1521E+00  0.4800E+00
    -18.338  0.2446E+00  0.5058E+00
    -18.233  0.6181E-01  0.5123E+00
    -18.127  0.1991E-01  0.5144E+00
    -18.022  0.2098E+00  0.5365E+00
    -17.917  0.3746E+00  0.5760E+00
    -17.811  0.1138E+00  0.5880E+00
    -17.706  0.1297E+00  0.6017E+00
    -17.600  0.2547E+00  0.6286E+00
    -17.495  0.8083E-01  0.6371E+00
    -17.389  0.3728E-02  0.6375E+00
    -17.284  0.7788E-04  0.6375E+00
    -17.178  0.6019E-02  0.6381E+00
    -17.073  0.8774E-01  0.6474E+00
    -16.967  0.1991E+00  0.6684E+00
    -16.862  0.1996E+00  0.6894E+00
    -16.756  0.3825E+00  0.7298E+00
    -16.651  0.1783E+00  0.7486E+00
    -16.545  0.1331E-01  0.7500E+00
    -16.440  0.1427E-03  0.7500E+00
    -16.334  0.2308E-04  0.7500E+00
    -16.229  0.3086E-02  0.7503E+00
    -16.124  0.6109E-01  0.7568E+00
    -16.018  0.2517E+00  0.7833E+00
    -15.913  0.3342E+00  0.8186E+00
    -15.807  0.2180E+00  0.8416E+00
    -15.702  0.1502E+00  0.8574E+00
    -15.596  0.4606E-01  0.8622E+00
    -15.491  0.2369E-02  0.8625E+00
    -15.385  0.1530E-02  0.8627E+00
    -15.280  0.4993E-01  0.8679E+00
    -15.174  0.2862E+00  0.8981E+00
    -15.069  0.3123E+00  0.9311E+00
    -14.963  0.9884E-01  0.9415E+00
    -14.858  0.1660E+00  0.9590E+00
    -14.752  0.2842E+00  0.9890E+00
    -14.647  0.1968E+00  0.1010E+01
    -14.542  0.2591E-01  0.1012E+01
    -14.436  0.5717E-03  0.1013E+01
    -14.331  0.9199E-02  0.1013E+01
    -14.225  0.1254E+00  0.1027E+01
    -14.120  0.2547E+00  0.1054E+01
    -14.014  0.8089E-01  0.1062E+01
    -13.909  0.3734E-02  0.1062E+01
    -13.803  0.2248E-04  0.1063E+01
    -13.698  0.5275E-04  0.1063E+01
    -13.592  0.5097E-02  0.1063E+01
    -13.487  0.6804E-01  0.1070E+01
    -13.381  0.2215E+00  0.1094E+01
    -13.276  0.5815E+00  0.1155E+01
    -13.170  0.5506E+00  0.1213E+01
    -13.065  0.1932E+00  0.1233E+01
    -12.959  0.3777E-01  0.1237E+01
    -12.854  0.1712E-02  0.1238E+01
    -12.749  0.1442E-01  0.1239E+01
    -12.643  0.1560E+00  0.1255E+01
    -12.538  0.2992E+00  0.1287E+01
    -12.432  0.1896E+00  0.1307E+01
    -12.327  0.4916E-01  0.1312E+01
    -12.221  0.2522E-02  0.1312E+01
    -12.116  0.1774E-04  0.1313E+01
    -12.010  0.1134E-03  0.1313E+01
    -11.905  0.1182E-01  0.1314E+01
    -11.799  0.1904E+00  0.1334E+01
    -11.694  0.5797E+00  0.1395E+01
    -11.588  0.3610E+00  0.1433E+01
    -11.483  0.4773E-01  0.1438E+01
    -11.377  0.1125E+00  0.1450E+01
    -11.272  0.3375E+00  0.1486E+01
    -11.167  0.2205E+00  0.1509E+01
    -11.061  0.3403E-01  0.1512E+01
    -10.956  0.9934E-03  0.1512E+01
    -10.850  0.4128E-05  0.1512E+01
    -10.745  0.1185E-07  0.1513E+01
    -10.639  0.1078E-04  0.1513E+01
    -10.534  0.1494E-02  0.1513E+01
    -10.428  0.3375E-01  0.1516E+01
    -10.323  0.2318E+00  0.1541E+01
    -10.217  0.6946E+00  0.1614E+01
    -10.112  0.8422E+00  0.1703E+01
    -10.006  0.4255E+00  0.1748E+01
     -9.901  0.4154E+00  0.1791E+01
     -9.795  0.4197E+00  0.1836E+01
     -9.690  0.1825E+00  0.1855E+01
     -9.584  0.2499E+00  0.1881E+01
     -9.479  0.2215E+00  0.1905E+01
     -9.374  0.2783E+00  0.1934E+01
     -9.268  0.3473E+00  0.1971E+01
     -9.163  0.4159E+00  0.2015E+01
     -9.057  0.3470E+00  0.2051E+01
     -8.952  0.3258E+00  0.2085E+01
     -8.846  0.4502E+00  0.2133E+01
     -8.741  0.5096E+00  0.2187E+01
     -8.635  0.5934E+00  0.2249E+01
     -8.530  0.3239E+00  0.2283E+01
     -8.424  0.7511E-01  0.2291E+01
     -8.319  0.2151E+00  0.2314E+01
     -8.213  0.1947E+00  0.2335E+01
     -8.108  0.3081E-01  0.2338E+01
     -8.002  0.9119E-01  0.2347E+01
     -7.897  0.3869E+00  0.2388E+01
     -7.792  0.5327E+00  0.2444E+01
     -7.686  0.3528E+00  0.2482E+01
     -7.581  0.8951E-01  0.2491E+01
     -7.475  0.1958E+00  0.2512E+01
     -7.370  0.3264E+00  0.2546E+01
     -7.264  0.1682E+00  0.2564E+01
     -7.159  0.2535E+00  0.2591E+01
     -7.053  0.4880E+00  0.2642E+01
     -6.948  0.3488E+00  0.2679E+01
     -6.842  0.1397E+00  0.2694E+01
     -6.737  0.1613E+00  0.2711E+01
     -6.631  0.1699E+00  0.2729E+01
     -6.526  0.1404E+00  0.2743E+01
     -6.420  0.2515E+00  0.2770E+01
     -6.315  0.4259E+00  0.2815E+01
     -6.209  0.2044E+00  0.2836E+01
     -6.104  0.1096E+00  0.2848E+01
     -5.999  0.2579E+00  0.2875E+01
     -5.893  0.1198E+00  0.2888E+01
     -5.788  0.9244E-01  0.2898E+01
     -5.682  0.1184E+00  0.2910E+01
     -5.577  0.9110E-01  0.2920E+01
     -5.471  0.3465E+00  0.2956E+01
     -5.366  0.3747E+00  0.2996E+01
     -5.260  0.2959E+00  0.3027E+01
     -5.155  0.1812E+00  0.3046E+01
     -5.049  0.1984E+00  0.3067E+01
     -4.944  0.7352E-01  0.3075E+01
     -4.838  0.3469E-01  0.3078E+01
     -4.733  0.1227E+00  0.3091E+01
     -4.627  0.1031E+00  0.3102E+01
     -4.522  0.2021E+00  0.3123E+01
     -4.416  0.2142E+00  0.3146E+01
     -4.311  0.3629E-01  0.3150E+01
     -4.206  0.8607E-03  0.3150E+01
     -4.100  0.2717E-05  0.3150E+01
     -3.995  0.9084E-04  0.3150E+01
     -3.889  0.7153E-02  0.3151E+01
     -3.784  0.7609E-01  0.3159E+01
     -3.678  0.1221E+00  0.3172E+01
     -3.573  0.3097E-01  0.3175E+01
     -3.467  0.1957E-01  0.3177E+01
     -3.362  0.1077E+00  0.3188E+01
     -3.256  0.9685E-01  0.3199E+01
     -3.151  0.1335E-01  0.3200E+01
     -3.045  0.2544E-03  0.3200E+01
     -2.940  0.6060E-06  0.3200E+01
     -2.834  0.1700E-09  0.3200E+01
     -2.729  0.5421E-14  0.3200E+01
     -2.624  0.1208E-12  0.3200E+01
     -2.518  0.2059E-08  0.3200E+01
     -2.413  0.4030E-05  0.3200E+01
     -2.307  0.9410E-03  0.3200E+01
     -2.202  0.2814E-01  0.3203E+01
     -2.096  0.1201E+00  0.3216E+01
     -1.991  0.8038E-01  0.3224E+01
     -1.885  0.3049E-01  0.3227E+01
     -1.780  0.1139E+00  0.3239E+01
     -1.674  0.8929E-01  0.3249E+01
     -1.569  0.1068E-01  0.3250E+01
     -1.463  0.1967E-03  0.3250E+01
     -1.358  0.4100E-02  0.3250E+01
     -1.252  0.1027E+00  0.3261E+01
     -1.147  0.4064E+00  0.3304E+01
     -1.041  0.3884E+00  0.3345E+01
     -0.936  0.1497E+00  0.3361E+01
     -0.831  0.1519E-01  0.3362E+01
     -0.725  0.5608E-03  0.3363E+01
     -0.620  0.2046E-01  0.3365E+01
     -0.514  0.1757E+00  0.3383E+01
     -0.409  0.2297E+00  0.3407E+01
     -0.303  0.4657E-01  0.3412E+01
     -0.198  0.1359E-02  0.3413E+01
     -0.092  0.4370E-02  0.3413E+01
      0.013  0.1066E+00  0.3424E+01
      0.119  0.3892E+00  0.3465E+01
      0.224  0.3564E+00  0.3503E+01
      0.330  0.2635E+00  0.3531E+01
      0.435  0.7788E-01  0.3539E+01
      0.541  0.6275E-01  0.3545E+01
      0.646  0.3941E-01  0.3550E+01
      0.751  0.2145E-01  0.3552E+01
      0.857  0.2127E+00  0.3574E+01
      0.962  0.4415E+00  0.3621E+01
      1.068  0.3414E+00  0.3657E+01
      1.173  0.1595E+00  0.3674E+01
      1.279  0.8063E-01  0.3682E+01
      1.384  0.2456E+00  0.3708E+01
      1.490  0.2395E+00  0.3733E+01
      1.595  0.1008E+00  0.3744E+01
      1.701  0.2039E+00  0.3765E+01
      1.806  0.3254E+00  0.3800E+01
      1.912  0.4020E+00  0.3842E+01
      2.017  0.3145E+00  0.3875E+01
      2.123  0.3682E+00  0.3914E+01
      2.228  0.4060E+00  0.3957E+01
      2.334  0.1748E+00  0.3975E+01
      2.439  0.2777E+00  0.4005E+01
      2.544  0.8382E+00  0.4093E+01
      2.650  0.5241E+00  0.4148E+01
      2.755  0.2207E+00  0.4172E+01
      2.861  0.3293E+00  0.4206E+01
      2.966  0.3254E+00  0.4241E+01
      3.072  0.1021E+00  0.4252E+01
      3.177  0.1269E+00  0.4265E+01
      3.283  0.3050E+00  0.4297E+01
      3.388  0.3900E+00  0.4338E+01
      3.494  0.1096E+00  0.4350E+01
      3.599  0.8992E-01  0.4359E+01
      3.705  0.4481E+00  0.4407E+01
      3.810  0.3929E+00  0.4448E+01
      3.916  0.1950E+00  0.4469E+01
      4.021  0.2864E+00  0.4499E+01
      4.127  0.2158E+00  0.4521E+01
      4.232  0.3999E-01  0.4526E+01
      4.337  0.1138E+00  0.4538E+01
      4.443  0.2575E+00  0.4565E+01
      4.548  0.1069E+00  0.4576E+01
      4.654  0.1536E+00  0.4592E+01
      4.759  0.2402E+00  0.4618E+01
      4.865  0.6662E-01  0.4625E+01
      4.970  0.4007E-02  0.4625E+01
      5.076  0.4626E-01  0.4630E+01
      5.181  0.3233E+00  0.4664E+01
      5.287  0.4453E+00  0.4711E+01
      5.392  0.1259E+00  0.4724E+01
      5.498  0.6318E-02  0.4725E+01
      5.603  0.4582E-04  0.4725E+01
      5.709  0.4168E-07  0.4725E+01
      5.814  0.2309E-09  0.4725E+01
      5.919  0.8872E-06  0.4725E+01
      6.025  0.4085E-03  0.4725E+01
      6.130  0.2343E-01  0.4728E+01
      6.236  0.1849E+00  0.4747E+01
      6.341  0.2277E+00  0.4771E+01
      6.447  0.1062E+00  0.4782E+01
      6.552  0.1279E+00  0.4796E+01
      6.658  0.3886E-01  0.4800E+01
      6.763  0.1727E-02  0.4800E+01
      6.869  0.9965E-05  0.4800E+01
      6.974  0.6913E-08  0.4800E+01
      7.080  0.5529E-12  0.4800E+01
      7.185  0.0000E+00  0.4800E+01
      7.291  0.0000E+00  0.4800E+01
      7.396  0.0000E+00  0.4800E+01
      7.502  0.0000E+00  0.4800E+01
      7.607  0.0000E+00  0.4800E+01
      7.712  0.0000E+00  0.4800E+01
      7.818  0.0000E+00  0.4800E+01
      7.923  0.0000E+00  0.4800E+01
