    4    4    5    1
  0.5238761E+02  0.4260000E-09  0.2459512E-09  0.2000000E-08  0.5000000E-15
   1.0000000000000000E-004
  CAR 
 C                                       
     16     15     12

  0.3742002E-15  0.3742002E-15  0.1262379E-14  0.3125000E-01
    1      -22.279119   1.000000
    2      -17.019067   1.000000
    3      -15.990480   1.000000
    4      -10.374421   1.000000
    5       -9.165706   1.000000
    6       -5.770332   1.000000
    7       -5.769482   1.000000
    8       -5.097092   1.000000
    9       -1.059669   0.000000
   10        0.515887   0.000000
   11        1.301312   0.000000
   12        1.630788   0.000000

  0.2500000E+00  0.3742002E-15  0.1262379E-14  0.6250000E-01
    1      -21.909515   1.000000
    2      -19.019270   1.000000
    3      -13.449467   1.000000
    4       -9.933528   1.000000
    5       -8.802531   1.000000
    6       -7.152665   1.000000
    7       -6.656350   1.000000
    8       -6.477302   1.000000
    9        1.018346   0.000000
   10        1.061776   0.000000
   11        1.810100   0.000000
   12        2.145660   0.000000

  0.5000000E+00  0.3742002E-15  0.1262379E-14  0.3125000E-01
    1      -20.810296   1.000000
    2      -20.810296   1.000000
    3      -10.165689   1.000000
    4      -10.165689   1.000000
    5       -8.641605   1.000000
    6       -8.641605   1.000000
    7       -7.792081   1.000000
    8       -7.792081   1.000000
    9        2.523144   0.000000
   10        2.523144   0.000000
   11        3.318908   0.000000
   12        3.318908   0.000000

  0.3742002E-15  0.1250000E+00  0.1262379E-14  0.6250000E-01
    1      -22.002253   1.000000
    2      -16.781543   1.000000
    3      -15.760642   1.000000
    4      -10.276494   1.000000
    5      -10.043578   1.000000
    6       -6.795989   1.000000
    7       -6.361179   1.000000
    8       -4.760036   1.000000
    9       -1.166620   0.000000
   10        0.892078   0.000000
   11        1.682416   0.000000
   12        2.016286   0.000000

  0.2500000E+00  0.1250000E+00  0.1262379E-14  0.1250000E+00
    1      -21.633814   1.000000
    2      -18.758570   1.000000
    3      -13.291786   1.000000
    4       -9.890278   1.000000
    5       -9.606407   1.000000
    6       -7.935694   1.000000
    7       -7.014570   1.000000
    8       -6.348057   1.000000
    9        0.889093   0.000000
   10        1.394628   0.000000
   11        2.190376   0.000000
   12        2.531205   0.000000

  0.5000000E+00  0.1250000E+00  0.1262379E-14  0.6250000E-01
    1      -20.538872   1.000000
    2      -20.538872   1.000000
    3      -10.264341   1.000000
    4      -10.264341   1.000000
    5       -8.735355   1.000000
    6       -8.735355   1.000000
    7       -8.324358   1.000000
    8       -8.324358   1.000000
    9        2.900246   0.000000
   10        2.900246   0.000000
   11        3.698919   0.000000
   12        3.698919   0.000000

  0.3742002E-15  0.2500000E+00  0.1262379E-14  0.6250000E-01
    1      -21.177047   1.000000
    2      -16.070774   1.000000
    3      -15.205155   1.000000
    4      -12.489440   1.000000
    5       -9.068075   1.000000
    6       -8.961800   1.000000
    7       -7.885879   1.000000
    8       -3.756733   1.000000
    9       -1.793598   0.000000
   10        2.020661   0.000000
   11        2.821897   0.000000
   12        3.172940   0.000000

  0.2500000E+00  0.2500000E+00  0.1262379E-14  0.1250000E+00
    1      -20.812202   1.000000
    2      -17.986940   1.000000
    3      -13.278973   1.000000
    4      -11.700466   1.000000
    5      -10.172498   1.000000
    6       -8.644278   1.000000
    7       -7.783248   1.000000
    8       -5.481940   1.000000
    9        0.082905   0.000000
   10        2.520520   0.000000
   11        3.315894   0.000000
   12        3.687331   0.000000

  0.5000000E+00  0.2500000E+00  0.1262379E-14  0.6250000E-01
    1      -19.730979   1.000000
    2      -19.730979   1.000000
    3      -11.762549   1.000000
    4      -11.762549   1.000000
    5       -9.398776   1.000000
    6       -9.398776   1.000000
    7       -7.404184   1.000000
    8       -7.404184   1.000000
    9        2.472758   0.000000
   10        2.472758   0.000000
   11        4.022184   0.000000
   12        4.022184   0.000000

  0.3742002E-15  0.3750000E+00  0.1262379E-14  0.6250000E-01
    1      -19.823098   1.000000
    2      -15.904033   1.000000
    3      -14.893941   1.000000
    4      -13.135228   1.000000
    5      -11.248419   1.000000
    6       -9.818081   1.000000
    7       -7.503100   1.000000
    8       -3.367840   1.000000
    9       -2.119505   0.000000
   10        2.726649   0.000000
   11        3.895271   0.000000
   12        4.700581   0.000000

  0.2500000E+00  0.3750000E+00  0.1262379E-14  0.1250000E+00
    1      -19.465609   1.000000
    2      -16.810064   1.000000
    3      -15.152375   1.000000
    4      -12.616303   1.000000
    5      -11.325687   1.000000
    6       -8.891451   1.000000
    7       -7.123535   1.000000
    8       -4.516626   1.000000
    9       -1.184052   0.000000
   10        1.847912   0.000000
   11        4.384223   0.000000
   12        5.233652   0.000000

  0.5000000E+00  0.3750000E+00  0.1262379E-14  0.6250000E-01
    1      -18.416518   1.000000
    2      -18.416518   1.000000
    3      -14.184764   1.000000
    4      -14.184764   1.000000
    5       -9.250092   1.000000
    6       -9.250092   1.000000
    7       -6.046767   1.000000
    8       -6.046767   1.000000
    9        0.252658   0.000000
   10        0.252658   0.000000
   11        5.171824   0.000000
   12        5.171824   0.000000

  0.3742002E-15  0.5000000E+00  0.1262379E-14  0.3125000E-01
    1      -17.992966   1.000000
    2      -17.992966   1.000000
    3      -13.270119   1.000000
    4      -13.270119   1.000000
    5      -11.703843   1.000000
    6      -11.703843   1.000000
    7       -5.488936   1.000000
    8       -5.488936   1.000000
    9        0.088584   0.000000
   10        0.088584   0.000000
   11        6.485172   0.000000
   12        6.485172   0.000000

  0.2500000E+00  0.5000000E+00  0.1262379E-14  0.6250000E-01
    1      -17.665285   1.000000
    2      -17.665285   1.000000
    3      -14.759650   1.000000
    4      -14.759650   1.000000
    5      -10.170059   1.000000
    6      -10.170059   1.000000
    7       -5.314409   1.000000
    8       -5.314409   1.000000
    9       -0.498859   0.000000
   10       -0.498859   0.000000
   11        6.246519   0.000000
   12        6.246519   0.000000

  0.5000000E+00  0.5000000E+00  0.1262379E-14  0.3125000E-01
    1      -17.032345   1.000000
    2      -17.032345   1.000000
    3      -15.987608   1.000000
    4      -15.987608   1.000000
    5       -9.152873   1.000000
    6       -9.152873   1.000000
    7       -5.109402   1.000000
    8       -5.109402   1.000000
    9       -1.056668   0.000000
   10       -1.056668   0.000000
   11        4.664666   0.000000
   12        4.664666   0.000000
