       N       E                     dE             d eps       ncg     rms          rms(c)
DAV:   1     0.739126696464E+02    0.73913E+02   -0.60226E+03   488   0.785E+02
DAV:   2    -0.278576952275E+02   -0.10177E+03   -0.88226E+02   556   0.170E+02
DAV:   3    -0.391983134641E+02   -0.11341E+02   -0.11225E+02   428   0.677E+01
DAV:   4    -0.394931411221E+02   -0.29483E+00   -0.29341E+00   444   0.130E+01
DAV:   5    -0.395006644214E+02   -0.75233E-02   -0.74929E-02   448   0.198E+00    0.907E+00
DAV:   6    -0.376506510060E+02    0.18500E+01   -0.16679E+00   408   0.897E+00    0.536E+00
DAV:   7    -0.369277911654E+02    0.72286E+00   -0.23529E+00   436   0.104E+01    0.139E+00
DAV:   8    -0.369146285293E+02    0.13163E-01   -0.59799E-02   444   0.176E+00    0.139E-01
DAV:   9    -0.369126116328E+02    0.20169E-02   -0.21135E-03   456   0.325E-01    0.105E-01
DAV:  10    -0.369078972454E+02    0.47144E-02   -0.63386E-03   412   0.384E-01    0.689E-02
DAV:  11    -0.369091846727E+02   -0.12874E-02   -0.13309E-03   396   0.220E-01    0.695E-02
DAV:  12    -0.369100945373E+02   -0.90986E-03   -0.29108E-04   380   0.130E-01    0.211E-02
DAV:  13    -0.369110722000E+02   -0.97766E-03   -0.70374E-05   404   0.457E-02    0.136E-02
DAV:  14    -0.369118726094E+02   -0.80041E-03   -0.10691E-04   408   0.434E-02    0.529E-03
DAV:  15    -0.369120203982E+02   -0.14779E-03   -0.12098E-05   392   0.163E-02    0.184E-03
DAV:  16    -0.369120466077E+02   -0.26210E-04   -0.22704E-06   412   0.883E-03    0.134E-03
DAV:  17    -0.369120580747E+02   -0.11467E-04   -0.56242E-07   264   0.485E-03    0.435E-04
DAV:  18    -0.369120618940E+02   -0.38193E-05   -0.10449E-07   280   0.216E-03    0.276E-04
DAV:  19    -0.369120672169E+02   -0.53229E-05   -0.33941E-08   264   0.138E-03    0.316E-04
DAV:  20    -0.369120685150E+02   -0.12981E-05   -0.83187E-09   260   0.703E-04    0.172E-04
DAV:  21    -0.369120689258E+02   -0.41077E-06   -0.68834E-09   268   0.610E-04
   1 F= -.36912069E+02 E0= -.36912069E+02  d E =-.369121E+02
       N       E                     dE             d eps       ncg     rms          rms(c)
DAV:   1    -0.369087497545E+02    0.33188E-02   -0.20590E-01   364   0.447E+00    0.301E-01
DAV:   2    -0.369076152860E+02    0.11345E-02   -0.30335E-03   380   0.476E-01    0.203E-01
DAV:   3    -0.369067878867E+02    0.82740E-03   -0.11752E-03   404   0.293E-01    0.279E-02
DAV:   4    -0.369068000177E+02   -0.12131E-04   -0.69706E-05   420   0.699E-02    0.119E-02
DAV:   5    -0.369068144314E+02   -0.14414E-04   -0.69704E-06   400   0.229E-02    0.490E-03
DAV:   6    -0.369068268556E+02   -0.12424E-04   -0.17722E-06   368   0.994E-03    0.242E-03
DAV:   7    -0.369068532087E+02   -0.26353E-04   -0.57503E-06   384   0.118E-02    0.185E-03
DAV:   8    -0.369068584682E+02   -0.52595E-05   -0.23752E-07   280   0.290E-03    0.119E-03
DAV:   9    -0.369068644870E+02   -0.60188E-05   -0.10418E-06   372   0.374E-03    0.599E-04
DAV:  10    -0.369068659256E+02   -0.14386E-05   -0.95990E-08   268   0.154E-03    0.382E-04
DAV:  11    -0.369068662561E+02   -0.33054E-06   -0.25892E-08   276   0.902E-04
   2 F= -.36906866E+02 E0= -.36906866E+02  d E =0.520267E-02
       N       E                     dE             d eps       ncg     rms          rms(c)
DAV:   1    -0.369140219573E+02   -0.71560E-02   -0.10459E-01   376   0.320E+00    0.215E-01
DAV:   2    -0.369134622829E+02    0.55967E-03   -0.15636E-03   412   0.340E-01    0.144E-01
DAV:   3    -0.369130621038E+02    0.40018E-03   -0.60184E-04   388   0.210E-01    0.198E-02
DAV:   4    -0.369130640716E+02   -0.19678E-05   -0.34925E-05   416   0.496E-02    0.855E-03
DAV:   5    -0.369130648516E+02   -0.77998E-06   -0.32543E-06   396   0.160E-02
   3 F= -.36913065E+02 E0= -.36913065E+02  d E =-.995926E-03
       N       E                     dE             d eps       ncg     rms          rms(c)
DAV:   1    -0.369129266098E+02    0.13746E-03   -0.11278E-02   392   0.984E-01    0.236E-02
DAV:   2    -0.369129400554E+02   -0.13446E-04   -0.16037E-04   400   0.107E-01    0.133E-02
DAV:   3    -0.369129413349E+02   -0.12795E-05   -0.70679E-06   396   0.249E-02    0.551E-03
DAV:   4    -0.369129457825E+02   -0.44475E-05   -0.17904E-06   296   0.123E-02    0.126E-03
DAV:   5    -0.369129494912E+02   -0.37087E-05   -0.24463E-07   264   0.450E-03    0.576E-04
DAV:   6    -0.369129550090E+02   -0.55178E-05   -0.14981E-07   264   0.252E-03    0.455E-04
DAV:   7    -0.369129592624E+02   -0.42534E-05   -0.11988E-07   260   0.188E-03    0.216E-04
DAV:   8    -0.369129607146E+02   -0.14522E-05   -0.42659E-08   276   0.115E-03    0.116E-04
DAV:   9    -0.369129612585E+02   -0.54390E-06   -0.69931E-09   276   0.693E-04
   4 F= -.36912961E+02 E0= -.36912961E+02  d E =0.103593E-03
       N       E                     dE             d eps       ncg     rms          rms(c)
DAV:   1    -0.369131044454E+02   -0.14373E-03   -0.53994E-03   388   0.681E-01    0.158E-02
DAV:   2    -0.369131090290E+02   -0.45836E-05   -0.74317E-05   424   0.729E-02    0.884E-03
DAV:   3    -0.369131078255E+02    0.12034E-05   -0.30756E-06   360   0.165E-02    0.382E-03
DAV:   4    -0.369131078334E+02   -0.78546E-08   -0.82664E-07   268   0.859E-03    0.770E-04
DAV:   5    -0.369131078597E+02   -0.26288E-07   -0.12939E-07   256   0.331E-03
   5 F= -.36913108E+02 E0= -.36913108E+02  d E =-.430081E-04
       N       E                     dE             d eps       ncg     rms          rms(c)
DAV:   1    -0.369131095100E+02   -0.16766E-05   -0.77623E-05   380   0.820E-02    0.184E-03
DAV:   2    -0.369131095758E+02   -0.65816E-07   -0.94020E-07   240   0.874E-03    0.102E-03
DAV:   3    -0.369131095908E+02   -0.14918E-07   -0.14556E-07   232   0.364E-03    0.387E-04
DAV:   4    -0.369131096110E+02   -0.20189E-07   -0.39903E-08   236   0.193E-03    0.132E-04
DAV:   5    -0.369131096258E+02   -0.14878E-07   -0.10786E-08   236   0.954E-04
   6 F= -.36913110E+02 E0= -.36913110E+02  d E =-.447743E-04
