 vasp.5.4.4.18Apr17-6-g9f103f2a35 (build May 21 2018 15:16:00) complex           
 executed on GUN_wannier90_optcel date 2019.03.25  10:03:06
 running on    2 total cores
 distrk:  each k-point on    2 cores,    1 groups
 distr:  one band on NCORES_PER_BAND=   1 cores,    2 groups


--------------------------------------------------------------------------------------------------------


 INCAR:
 POTCAR:    PAW_PBE C 08Apr2002                   
 POTCAR:    PAW_PBE C 08Apr2002                   
  local pseudopotential read in
  partial core-charges read in
  partial kinetic energy density read in
  atomic valenz-charges read in
  non local Contribution for L=           0  read in
    real space projection operators read in
  non local Contribution for L=           0  read in
    real space projection operators read in
  non local Contribution for L=           1  read in
    real space projection operators read in
  non local Contribution for L=           1  read in
    real space projection operators read in
    PAW grid and wavefunctions read in

   number of l-projection  operators is LMAX  =           4
   number of lm-projection operators is LMMAX =           8

  PAW_PBE C 08Apr2002                   :
 energy of atom  1       EATOM= -147.1560
 kinetic energy error for atom=    0.0288 (will be added to EATOM!!)


 POSCAR: graphene d=a0                           
  positions in cartesian coordinates
  No initial velocities read in
 exchange correlation table for  LEXCH =        8
   RHO(1)=    0.500       N(1)  =     2000
   RHO(2)=  100.500       N(2)  =     4000



--------------------------------------------------------------------------------------------------------


 ion  position               nearest neighbor table
   1  0.333  0.000  0.500-   3 1.42   3 1.42   2 1.42
   2  0.667  0.000  0.500-   4 1.42   4 1.42   1 1.42
   3  0.167  0.500  0.500-   1 1.42   1 1.42   4 1.42
   4  0.833  0.500  0.500-   2 1.42   2 1.42   3 1.42

  LATTYP: Found a simple orthorhombic cell.
 ALAT       =     2.4595122338
 B/A-ratio  =     1.7320508393
 C/A-ratio  =     8.1316936444
  
  Lattice vectors:
  
 A1 = (   0.0000000000,  -2.4595122338,   0.0000000000)
 A2 = (  -4.2600002289,   0.0000000000,   0.0000000000)
 A3 = (   0.0000000000,   0.0000000000, -20.0000000000)


Analysis of symmetry for initial positions (statically):
=====================================================================
 Subroutine PRICEL returns following result:
 
  LATTYP: Found a hexagonal cell.
 ALAT       =     2.4595122672
 C/A-ratio  =     8.1316935342
  
  Lattice vectors:
  
 A1 = (   2.1300001139,  -1.2297561169,   0.0000000000)
 A2 = (  -2.1300001139,  -1.2297561169,   0.0000000000)
 A3 = (   0.0000000000,   0.0000000000, -20.0000000000)
 
   2 primitive cells build up your supercell.
 

 Routine SETGRP: Setting up the symmetry group for a 
 simple orthorhombic supercell.


 Subroutine GETGRP returns: Found  8 space group operations
 (whereof  8 operations were pure point group operations)
 out of a pool of  8 trial point group operations.


The static configuration has the point symmetry D_2h.


Analysis of symmetry for dynamics (positions and initial velocities):
=====================================================================
 Subroutine PRICEL returns following result:
 
  LATTYP: Found a hexagonal cell.
 ALAT       =     2.4595122672
 C/A-ratio  =     8.1316935342
  
  Lattice vectors:
  
 A1 = (   2.1300001139,  -1.2297561169,   0.0000000000)
 A2 = (  -2.1300001139,  -1.2297561169,   0.0000000000)
 A3 = (   0.0000000000,   0.0000000000, -20.0000000000)
 
   2 primitive cells build up your supercell.
 

 Routine SETGRP: Setting up the symmetry group for a 
 simple orthorhombic supercell.


 Subroutine GETGRP returns: Found  8 space group operations
 (whereof  8 operations were pure point group operations)
 out of a pool of  8 trial point group operations.


The dynamic configuration has the point symmetry D_2h.


 Subroutine INISYM returns: Found  8 space group operations
 (whereof  8 operations are pure point group operations),
 and found     2 'primitive' translations



 KPOINTS: K-point                                 

Automatic generation of k-mesh.
Space group operators:
 irot       det(A)        alpha          n_x          n_y          n_z        tau_x        tau_y        tau_z
    1     1.000000     0.000000     1.000000     0.000000     0.000000     0.000000    -0.000000    -0.000000
    2    -1.000000     0.000000     1.000000     0.000000     0.000000     0.000000    -0.000000    -0.000000
    3     1.000000   180.000000     0.000000     0.000000     1.000000     0.000000    -0.000000    -0.000000
    4    -1.000000   180.000000     0.000000     0.000000     1.000000     0.000000    -0.000000    -0.000000
    5     1.000000   180.000000     1.000000     0.000000     0.000000     0.000000    -0.000000    -0.000000
    6    -1.000000   180.000000     1.000000     0.000000     0.000000     0.000000    -0.000000    -0.000000
    7     1.000000   180.000000     0.000000     1.000000     0.000000     0.000000    -0.000000    -0.000000
    8    -1.000000   180.000000     0.000000     1.000000     0.000000     0.000000    -0.000000    -0.000000
 
 Subroutine IBZKPT returns following result:
 ===========================================
 
 Found     15 irreducible k-points:
 
 Following reciprocal coordinates:
            Coordinates               Weight
  0.000000  0.000000  0.000000      1.000000
  0.250000  0.000000  0.000000      2.000000
  0.500000  0.000000  0.000000      1.000000
  0.000000  0.125000  0.000000      2.000000
  0.250000  0.125000  0.000000      4.000000
  0.500000  0.125000  0.000000      2.000000
  0.000000  0.250000  0.000000      2.000000
  0.250000  0.250000  0.000000      4.000000
  0.500000  0.250000  0.000000      2.000000
  0.000000  0.375000  0.000000      2.000000
  0.250000  0.375000  0.000000      4.000000
  0.500000  0.375000  0.000000      2.000000
  0.000000  0.500000  0.000000      1.000000
  0.250000  0.500000  0.000000      2.000000
  0.500000  0.500000  0.000000      1.000000
 
 Following cartesian coordinates:
            Coordinates               Weight
  0.000000  0.000000  0.000000      1.000000
  0.058685  0.000000  0.000000      2.000000
  0.117371  0.000000  0.000000      1.000000
  0.000000  0.050823  0.000000      2.000000
  0.058685  0.050823  0.000000      4.000000
  0.117371  0.050823  0.000000      2.000000
  0.000000  0.101646  0.000000      2.000000
  0.058685  0.101646  0.000000      4.000000
  0.117371  0.101646  0.000000      2.000000
  0.000000  0.152469  0.000000      2.000000
  0.058685  0.152469  0.000000      4.000000
  0.117371  0.152469  0.000000      2.000000
  0.000000  0.203292  0.000000      1.000000
  0.058685  0.203292  0.000000      2.000000
  0.117371  0.203292  0.000000      1.000000
 


--------------------------------------------------------------------------------------------------------




 Dimension of arrays:
   k-points           NKPTS =     15   k-points in BZ     NKDIM =     15   number of bands    NBANDS=     12
   number of dos      NEDOS =    301   number of ions     NIONS =      4
   non local maximal  LDIM  =      4   non local SUM 2l+1 LMDIM =      8
   total plane-waves  NPLWV =  62720
   max r-space proj   IRMAX =      1   max aug-charges    IRDMAX=   3731
   dimension x,y,z NGX =    28 NGY =   16 NGZ =  140
   dimension x,y,z NGXF=    56 NGYF=   32 NGZF=  280
   support grid    NGXF=    56 NGYF=   32 NGZF=  280
   ions per type =               4
   NGX,Y,Z   is equivalent  to a cutoff of  10.93, 10.81, 11.64 a.u.
   NGXF,Y,Z  is equivalent  to a cutoff of  21.85, 21.63, 23.27 a.u.

 SYSTEM =  C                                       
 POSCAR =  graphene d=a0                           

 Startparameter for this run:
   NWRITE =      1    write-flag & timer
   PREC   = a         normal or accurate (medium, high low for compatibility)
   ISTART =      0    job   : 0-new  1-cont  2-samecut
   ICHARG =      2    charge: 1-file 2-atom 10-const
   ISPIN  =      1    spin polarized calculation?
   LNONCOLLINEAR =      F non collinear calculations
   LSORBIT =      F    spin-orbit coupling
   INIWAV =      1    electr: 0-lowe 1-rand  2-diag
   LASPH  =      F    aspherical Exc in radial PAW
   METAGGA=      F    non-selfconsistent MetaGGA calc.

 Electronic Relaxation 1
   ENCUT  =  400.0 eV  29.40 Ry    5.42 a.u.   6.95  4.01 32.61*2*pi/ulx,y,z
   ENINI  =  400.0     initial cutoff
   ENAUG  =  644.9 eV  augmentation charge cutoff
   NELM   =   2000;   NELMIN=  5; NELMDL= -5     # of ELM steps 
   EDIFF  = 0.1E-05   stopping-criterion for ELM
   LREAL  =      F    real-space projection
   NLSPLINE    = F    spline interpolate recip. space projectors
   LCOMPAT=      F    compatible to vasp.4.4
   GGA_COMPAT  = T    GGA compatible to vasp.4.4-vasp.4.6
   LMAXPAW     = -100 max onsite density
   LMAXMIX     =    2 max onsite mixed and CHGCAR
   VOSKOWN=      0    Vosko Wilk Nusair interpolation
   ROPT   =    0.00000
 Ionic relaxation
   EDIFFG = -.1E-01   stopping-criterion for IOM
   NSW    =    500    number of steps for IOM
   NBLOCK =      1;   KBLOCK =      5    inner block; outer block 
   IBRION =      2    ionic relax: 0-MD 1-quasi-New 2-CG
   NFREE  =      1    steps in history (QN), initial steepest desc. (CG)
   ISIF   =      3    stress and relaxation
   IWAVPR =     11    prediction:  0-non 1-charg 2-wave 3-comb
   ISYM   =      2    0-nonsym 1-usesym 2-fastsym
   LCORR  =      T    Harris-Foulkes like correction to forces

   POTIM  = 0.5000    time-step for ionic-motion
   TEIN   =    0.0    initial temperature
   TEBEG  =    0.0;   TEEND  =   0.0 temperature during run
   SMASS  =  -3.00    Nose mass-parameter (am)
   estimated Nose-frequenzy (Omega)   =  0.10E-29 period in steps =****** mass=  -0.415E-27a.u.
   SCALEE = 1.0000    scale energy and forces
   NPACO  =    256;   APACO  = 16.0  distance and # of slots for P.C.
   PSTRESS=    0.0 pullay stress

  Mass of Ions in am
   POMASS =  12.01
  Ionic Valenz
   ZVAL   =   4.00
  Atomic Wigner-Seitz radii
   RWIGS  =  -1.00
  virtual crystal weights 
   VCA    =   1.00
   NELECT =      16.0000    total number of electrons
   NUPDOWN=      -1.0000    fix difference up-down

 DOS related values:
   EMIN   =  10.00;   EMAX   =-10.00  energy-range for DOS
   EFERMI =   0.00
   ISMEAR =     0;   SIGMA  =   0.10  broadening in eV -4-tet -1-fermi 0-gaus

 Electronic relaxation 2 (details)
   IALGO  =     38    algorithm
   LDIAG  =      T    sub-space diagonalisation (order eigenvalues)
   LSUBROT=      F    optimize rotation matrix (better conditioning)
   TURBO    =      0    0=normal 1=particle mesh
   IRESTART =      0    0=no restart 2=restart with 2 vectors
   NREBOOT  =      0    no. of reboots
   NMIN     =      0    reboot dimension
   EREF     =   0.00    reference energy to select bands
   IMIX   =      4    mixing-type and parameters
     AMIX     =   0.40;   BMIX     =  1.00
     AMIX_MAG =   1.60;   BMIX_MAG =  1.00
     AMIN     =   0.10
     WC   =   100.;   INIMIX=   1;  MIXPRE=   1;  MAXMIX= -45

 Intra band minimization:
   WEIMIN = 0.0010     energy-eigenvalue tresh-hold
   EBREAK =  0.21E-07  absolut break condition
   DEPER  =   0.30     relativ break condition  

   TIME   =   0.40     timestep for ELM

  volume/ion in A,a.u.               =      52.39       353.53
  Fermi-wavevector in a.u.,A,eV,Ry     =   0.694521  1.312454  6.562896  0.482359
  Thomas-Fermi vector in A             =   1.777037

 Write flags
   LWAVE        =      F    write WAVECAR
   LDOWNSAMPLE  =      F    k-point downsampling of WAVECAR
   LCHARG       =      F    write CHGCAR
   LVTOT        =      F    write LOCPOT, total local potential
   LVHAR        =      F    write LOCPOT, Hartree potential only
   LELF         =      F    write electronic localiz. function (ELF)
   LORBIT       =      0    0 simple, 1 ext, 2 COOP (PROOUT), +10 PAW based schemes


 Dipole corrections
   LMONO  =      F    monopole corrections only (constant potential shift)
   LDIPOL =      F    correct potential (dipole corrections)
   IDIPOL =      0    1-x, 2-y, 3-z, 4-all directions 
   EPSILON=  1.0000000 bulk dielectric constant

 Exchange correlation treatment:
   GGA     =    --    GGA type
   LEXCH   =     8    internal setting for exchange type
   VOSKOWN=      0    Vosko Wilk Nusair interpolation
   LHFCALC =     F    Hartree Fock is set to
   LHFONE  =     F    Hartree Fock one center treatment
   AEXX    =    0.0000 exact exchange contribution

 Linear response parameters
   LEPSILON=     F    determine dielectric tensor
   LRPA    =     F    only Hartree local field effects (RPA)
   LNABLA  =     F    use nabla operator in PAW spheres
   LVEL    =     F    velocity operator in full k-point grid
   LINTERFAST=   F  fast interpolation
   KINTER  =     0    interpolate to denser k-point grid
   CSHIFT  =0.1000    complex shift for real part using Kramers Kronig
   OMEGAMAX=  -1.0    maximum frequency
   DEG_THRESHOLD= 0.2000000E-02 threshold for treating states as degnerate
   RTIME   =   -0.100 relaxation time in fs
  (WPLASMAI=    0.000 imaginary part of plasma frequency in eV, 0.658/RTIME)
   DFIELD  = 0.0000000 0.0000000 0.0000000 field for delta impulse in time

 Orbital magnetization related:
   ORBITALMAG=     F  switch on orbital magnetization
   LCHIMAG   =     F  perturbation theory with respect to B field
   DQ        =  0.001000  dq finite difference perturbation B field
   LLRAUG    =     F  two centre corrections for induced B field



--------------------------------------------------------------------------------------------------------


 conjugate gradient relaxation of ions
 charge density and potential will be updated during run
 non-spin polarized calculation
 Variant of blocked Davidson
 Davidson routine will perform the subspace rotation
 perform sub-space diagonalisation
    after iterative eigenvector-optimisation
 modified Broyden-mixing scheme, WC =      100.0
 initial mixing is a Kerker type mixing with AMIX =  0.4000 and BMIX =      1.0000
 Hartree-type preconditioning will be used
 using additional bands            4
 reciprocal scheme for non local part
 use partial core corrections
 calculate Harris-corrections to forces   (improved forces if not selfconsistent)
 use gradient corrections 
 use of overlap-Matrix (Vanderbilt PP)
 Gauss-broadening in eV      SIGMA  =   0.10


--------------------------------------------------------------------------------------------------------


  energy-cutoff  :      400.00
  volume of cell :      209.55
      direct lattice vectors                 reciprocal lattice vectors
     4.260000229  0.000000000  0.000000000     0.234741771  0.000000000  0.000000000
     0.000000000  2.459512234  0.000000000     0.000000000  0.406584682  0.000000000
     0.000000000  0.000000000 20.000000000     0.000000000  0.000000000  0.050000000

  length of vectors
     4.260000229  2.459512234 20.000000000     0.234741771  0.406584682  0.050000000



 k-points in units of 2pi/SCALE and weight: K-point                                 
   0.00000000  0.00000000  0.00000000       0.031
   0.05868544  0.00000000  0.00000000       0.062
   0.11737089  0.00000000  0.00000000       0.031
   0.00000000  0.05082309  0.00000000       0.062
   0.05868544  0.05082309  0.00000000       0.125
   0.11737089  0.05082309  0.00000000       0.062
   0.00000000  0.10164617  0.00000000       0.062
   0.05868544  0.10164617  0.00000000       0.125
   0.11737089  0.10164617  0.00000000       0.062
   0.00000000  0.15246926  0.00000000       0.062
   0.05868544  0.15246926  0.00000000       0.125
   0.11737089  0.15246926  0.00000000       0.062
   0.00000000  0.20329234  0.00000000       0.031
   0.05868544  0.20329234  0.00000000       0.062
   0.11737089  0.20329234  0.00000000       0.031

 k-points in reciprocal lattice and weights: K-point                                 
   0.00000000  0.00000000  0.00000000       0.031
   0.25000000  0.00000000  0.00000000       0.062
   0.50000000  0.00000000  0.00000000       0.031
   0.00000000  0.12500000  0.00000000       0.062
   0.25000000  0.12500000  0.00000000       0.125
   0.50000000  0.12500000  0.00000000       0.062
   0.00000000  0.25000000  0.00000000       0.062
   0.25000000  0.25000000  0.00000000       0.125
   0.50000000  0.25000000  0.00000000       0.062
   0.00000000  0.37500000  0.00000000       0.062
   0.25000000  0.37500000  0.00000000       0.125
   0.50000000  0.37500000  0.00000000       0.062
   0.00000000  0.50000000  0.00000000       0.031
   0.25000000  0.50000000  0.00000000       0.062
   0.50000000  0.50000000  0.00000000       0.031

 position of ions in fractional coordinates (direct lattice) 
   0.33333333  0.00000000  0.50000000
   0.66666667  0.00000000  0.50000000
   0.16666667  0.50000000  0.50000000
   0.83333333  0.50000000  0.50000000

 position of ions in cartesian coordinates  (Angst):
   1.42000008  0.00000000 10.00000000
   2.84000015  0.00000000 10.00000000
   0.71000004  1.22975612 10.00000000
   3.55000019  1.22975612 10.00000000



--------------------------------------------------------------------------------------------------------


 k-point  1 :   0.0000 0.0000 0.0000  plane waves:    3741
 k-point  2 :   0.2500 0.0000 0.0000  plane waves:    3754
 k-point  3 :   0.5000 0.0000 0.0000  plane waves:    3782
 k-point  4 :   0.0000 0.1250 0.0000  plane waves:    3754
 k-point  5 :   0.2500 0.1250 0.0000  plane waves:    3786
 k-point  6 :   0.5000 0.1250 0.0000  plane waves:    3808
 k-point  7 :   0.0000 0.2500 0.0000  plane waves:    3796
 k-point  8 :   0.2500 0.2500 0.0000  plane waves:    3815
 k-point  9 :   0.5000 0.2500 0.0000  plane waves:    3820
 k-point 10 :   0.0000 0.3750 0.0000  plane waves:    3824
 k-point 11 :   0.2500 0.3750 0.0000  plane waves:    3836
 k-point 12 :   0.5000 0.3750 0.0000  plane waves:    3842
 k-point 13 :   0.0000 0.5000 0.0000  plane waves:    3848
 k-point 14 :   0.2500 0.5000 0.0000  plane waves:    3850
 k-point 15 :   0.5000 0.5000 0.0000  plane waves:    3788

 maximum and minimum number of plane-waves per node :      3850     3741

 maximum number of plane-waves:      3850
 maximum index in each direction: 
   IXMAX=    6   IYMAX=    4   IZMAX=   32
   IXMIN=   -7   IYMIN=   -4   IZMIN=  -32


 serial   3D FFT for wavefunctions
 parallel 3D FFT for charge:
    minimum data exchange during FFTs selected (reduces bandwidth)


 total amount of memory used by VASP MPI-rank0    62874. kBytes
=======================================================================

   base      :      30000. kBytes
   nonl-proj :       3942. kBytes
   fftplans  :       8715. kBytes
   grid      :      14615. kBytes
   one-center:         12. kBytes
   wavefun   :       5590. kBytes

     INWAV:  cpu time    0.0000: real time    0.0000
 Broyden mixing: mesh for mixing (old mesh)
   NGX = 13   NGY =  9   NGZ = 65
  (NGX  = 56   NGY  = 32   NGZ  =280)
  gives a total of   7605 points

 initial charge density was supplied:
 charge density of overlapping atoms calculated
 number of electron      16.0000000 magnetization 
 keeping initial charge density in first step


--------------------------------------------------------------------------------------------------------


 Maximum index for augmentation-charges         1717 (set IRDMAX)


--------------------------------------------------------------------------------------------------------


 First call to EWALD:  gamma=   0.298
 Maximum number of real-space cells 4x 6x 1
 Maximum number of reciprocal cells 2x 1x 8

    FEWALD:  cpu time    0.0013: real time    0.0013


--------------------------------------- Iteration      1(   1)  ---------------------------------------


    POTLOK:  cpu time    0.1773: real time    0.1843
    SETDIJ:  cpu time    0.0035: real time    0.0056
     EDDAV:  cpu time    1.6311: real time    1.8466
       DOS:  cpu time    0.0005: real time    0.0006
    --------------------------------------------
      LOOP:  cpu time    1.8123: real time    2.0371

 eigenvalue-minimisations  :   488
 total energy-change (2. order) : 0.7391267E+02  (-0.6022588E+03)
 number of electron      16.0000000 magnetization 
 augmentation part       16.0000000 magnetization 

 Free energy of the ion-electron system (eV)
  ---------------------------------------------------
  alpha Z        PSCENC =         6.27222434
  Ewald energy   TEWEN  =      2606.06587534
  -Hartree energ DENC   =     -3030.42622588
  -exchange      EXHF   =         0.00000000
  -V(xc)+E(xc)   XCENC  =        52.79061582
  PAW double counting   =       434.08818552     -436.36580876
  entropy T*S    EENTRO =        -0.00584029
  eigenvalues    EBANDS =      -147.01525194
  atomic energy  EATOM  =       588.50889549
  Solvation  Ediel_sol  =         0.00000000
  ---------------------------------------------------
  free energy    TOTEN  =        73.91266965 eV

  energy without entropy =       73.91850994  energy(sigma->0) =       73.91558979


--------------------------------------------------------------------------------------------------------




--------------------------------------- Iteration      1(   2)  ---------------------------------------


     EDDAV:  cpu time    1.6103: real time    1.6874
       DOS:  cpu time    0.0001: real time    0.0001
    --------------------------------------------
      LOOP:  cpu time    1.6104: real time    1.6876

 eigenvalue-minimisations  :   556
 total energy-change (2. order) :-0.1017704E+03  (-0.8822551E+02)
 number of electron      16.0000000 magnetization 
 augmentation part       16.0000000 magnetization 

 Free energy of the ion-electron system (eV)
  ---------------------------------------------------
  alpha Z        PSCENC =         6.27222434
  Ewald energy   TEWEN  =      2606.06587534
  -Hartree energ DENC   =     -3030.42622588
  -exchange      EXHF   =         0.00000000
  -V(xc)+E(xc)   XCENC  =        52.79061582
  PAW double counting   =       434.08818552     -436.36580876
  entropy T*S    EENTRO =        -0.00000000
  eigenvalues    EBANDS =      -248.79145710
  atomic energy  EATOM  =       588.50889549
  Solvation  Ediel_sol  =         0.00000000
  ---------------------------------------------------
  free energy    TOTEN  =       -27.85769523 eV

  energy without entropy =      -27.85769523  energy(sigma->0) =      -27.85769523


--------------------------------------------------------------------------------------------------------




--------------------------------------- Iteration      1(   3)  ---------------------------------------


     EDDAV:  cpu time    1.0303: real time    1.0343
       DOS:  cpu time    0.0002: real time    0.0002
    --------------------------------------------
      LOOP:  cpu time    1.0305: real time    1.0345

 eigenvalue-minimisations  :   428
 total energy-change (2. order) :-0.1134062E+02  (-0.1122548E+02)
 number of electron      16.0000000 magnetization 
 augmentation part       16.0000000 magnetization 

 Free energy of the ion-electron system (eV)
  ---------------------------------------------------
  alpha Z        PSCENC =         6.27222434
  Ewald energy   TEWEN  =      2606.06587534
  -Hartree energ DENC   =     -3030.42622588
  -exchange      EXHF   =         0.00000000
  -V(xc)+E(xc)   XCENC  =        52.79061582
  PAW double counting   =       434.08818552     -436.36580876
  entropy T*S    EENTRO =        -0.00000000
  eigenvalues    EBANDS =      -260.13207534
  atomic energy  EATOM  =       588.50889549
  Solvation  Ediel_sol  =         0.00000000
  ---------------------------------------------------
  free energy    TOTEN  =       -39.19831346 eV

  energy without entropy =      -39.19831346  energy(sigma->0) =      -39.19831346


--------------------------------------------------------------------------------------------------------




--------------------------------------- Iteration      1(   4)  ---------------------------------------


     EDDAV:  cpu time    1.0321: real time    1.0349
       DOS:  cpu time    0.0001: real time    0.0001
    --------------------------------------------
      LOOP:  cpu time    1.0322: real time    1.0351

 eigenvalue-minimisations  :   444
 total energy-change (2. order) :-0.2948277E+00  (-0.2934073E+00)
 number of electron      16.0000000 magnetization 
 augmentation part       16.0000000 magnetization 

 Free energy of the ion-electron system (eV)
  ---------------------------------------------------
  alpha Z        PSCENC =         6.27222434
  Ewald energy   TEWEN  =      2606.06587534
  -Hartree energ DENC   =     -3030.42622588
  -exchange      EXHF   =         0.00000000
  -V(xc)+E(xc)   XCENC  =        52.79061582
  PAW double counting   =       434.08818552     -436.36580876
  entropy T*S    EENTRO =        -0.00000000
  eigenvalues    EBANDS =      -260.42690300
  atomic energy  EATOM  =       588.50889549
  Solvation  Ediel_sol  =         0.00000000
  ---------------------------------------------------
  free energy    TOTEN  =       -39.49314112 eV

  energy without entropy =      -39.49314112  energy(sigma->0) =      -39.49314112


--------------------------------------------------------------------------------------------------------




--------------------------------------- Iteration      1(   5)  ---------------------------------------


     EDDAV:  cpu time    1.0498: real time    1.0576
       DOS:  cpu time    0.0002: real time    0.0002
    CHARGE:  cpu time    0.1075: real time    0.1143
    MIXING:  cpu time    0.0062: real time    0.0063
    --------------------------------------------
      LOOP:  cpu time    1.1637: real time    1.1784

 eigenvalue-minimisations  :   448
 total energy-change (2. order) :-0.7523299E-02  (-0.7492910E-02)
 number of electron      15.9999999 magnetization 
 augmentation part        0.4253279 magnetization 

 Broyden mixing:
  rms(total) = 0.90663E+00    rms(broyden)= 0.90637E+00
  rms(prec ) = 0.96830E+00
  weight for this iteration     100.00

 Free energy of the ion-electron system (eV)
  ---------------------------------------------------
  alpha Z        PSCENC =         6.27222434
  Ewald energy   TEWEN  =      2606.06587534
  -Hartree energ DENC   =     -3030.42622588
  -exchange      EXHF   =         0.00000000
  -V(xc)+E(xc)   XCENC  =        52.79061582
  PAW double counting   =       434.08818552     -436.36580876
  entropy T*S    EENTRO =        -0.00000000
  eigenvalues    EBANDS =      -260.43442630
  atomic energy  EATOM  =       588.50889549
  Solvation  Ediel_sol  =         0.00000000
  ---------------------------------------------------
  free energy    TOTEN  =       -39.50066442 eV

  energy without entropy =      -39.50066442  energy(sigma->0) =      -39.50066442


--------------------------------------------------------------------------------------------------------




--------------------------------------- Iteration      1(   6)  ---------------------------------------


    POTLOK:  cpu time    0.1079: real time    0.1134
    SETDIJ:  cpu time    0.0034: real time    0.0045
     EDDAV:  cpu time    1.2412: real time    1.4076
       DOS:  cpu time    0.0001: real time    0.0001
    CHARGE:  cpu time    0.0925: real time    0.0977
    MIXING:  cpu time    0.0045: real time    0.0186
    --------------------------------------------
      LOOP:  cpu time    1.4496: real time    1.6420

 eigenvalue-minimisations  :   408
 total energy-change (2. order) : 0.1850013E+01  (-0.1667881E+00)
 number of electron      16.0000000 magnetization 
 augmentation part        0.4076894 magnetization 

 Broyden mixing:
  rms(total) = 0.53599E+00    rms(broyden)= 0.53596E+00
  rms(prec ) = 0.56710E+00
  weight for this iteration     100.00

 eigenvalues of (default mixing * dielectric matrix)
  average eigenvalue GAMMA=   2.2264
  2.2264

 Free energy of the ion-electron system (eV)
  ---------------------------------------------------
  alpha Z        PSCENC =         6.27222434
  Ewald energy   TEWEN  =      2606.06587534
  -Hartree energ DENC   =     -3052.99738701
  -exchange      EXHF   =         0.00000000
  -V(xc)+E(xc)   XCENC  =        53.75624012
  PAW double counting   =       813.65479941     -816.22085121
  entropy T*S    EENTRO =        -0.00000000
  eigenvalues    EBANDS =      -236.69044748
  atomic energy  EATOM  =       588.50889549
  Solvation  Ediel_sol  =         0.00000000
  ---------------------------------------------------
  free energy    TOTEN  =       -37.65065101 eV

  energy without entropy =      -37.65065101  energy(sigma->0) =      -37.65065101


--------------------------------------------------------------------------------------------------------




--------------------------------------- Iteration      1(   7)  ---------------------------------------


    POTLOK:  cpu time    0.1100: real time    0.1136
    SETDIJ:  cpu time    0.0026: real time    0.0026
     EDDAV:  cpu time    1.0516: real time    1.0847
       DOS:  cpu time    0.0002: real time    0.0002
    CHARGE:  cpu time    0.0907: real time    0.0962
    MIXING:  cpu time    0.0054: real time    0.0078
    --------------------------------------------
      LOOP:  cpu time    1.2605: real time    1.3052

 eigenvalue-minimisations  :   436
 total energy-change (2. order) : 0.7228598E+00  (-0.2352888E+00)
 number of electron      16.0000000 magnetization 
 augmentation part        0.3858845 magnetization 

 Broyden mixing:
  rms(total) = 0.13860E+00    rms(broyden)= 0.13845E+00
  rms(prec ) = 0.14380E+00
  weight for this iteration     100.00

 eigenvalues of (default mixing * dielectric matrix)
  average eigenvalue GAMMA=   2.2734
  2.2734  2.2734

 Free energy of the ion-electron system (eV)
  ---------------------------------------------------
  alpha Z        PSCENC =         6.27222434
  Ewald energy   TEWEN  =      2606.06587534
  -Hartree energ DENC   =     -3083.83399238
  -exchange      EXHF   =         0.00000000
  -V(xc)+E(xc)   XCENC  =        55.06395598
  PAW double counting   =      1565.18046179    -1568.00901729
  entropy T*S    EENTRO =        -0.00000000
  eigenvalues    EBANDS =      -206.17619444
  atomic energy  EATOM  =       588.50889549
  Solvation  Ediel_sol  =         0.00000000
  ---------------------------------------------------
  free energy    TOTEN  =       -36.92779117 eV

  energy without entropy =      -36.92779117  energy(sigma->0) =      -36.92779117


--------------------------------------------------------------------------------------------------------




--------------------------------------- Iteration      1(   8)  ---------------------------------------


    POTLOK:  cpu time    0.1096: real time    0.1127
    SETDIJ:  cpu time    0.0021: real time    0.0022
     EDDAV:  cpu time    1.0638: real time    1.0783
       DOS:  cpu time    0.0002: real time    0.0002
    CHARGE:  cpu time    0.0961: real time    0.1044
    MIXING:  cpu time    0.0038: real time    0.0043
    --------------------------------------------
      LOOP:  cpu time    1.2756: real time    1.3020

 eigenvalue-minimisations  :   444
 total energy-change (2. order) : 0.1316264E-01  (-0.5979872E-02)
 number of electron      16.0000000 magnetization 
 augmentation part        0.3847758 magnetization 

 Broyden mixing:
  rms(total) = 0.13887E-01    rms(broyden)= 0.13846E-01
  rms(prec ) = 0.25766E-01
  weight for this iteration     100.00

 eigenvalues of (default mixing * dielectric matrix)
  average eigenvalue GAMMA=   1.8227
  1.0146  2.2268  2.2268

 Free energy of the ion-electron system (eV)
  ---------------------------------------------------
  alpha Z        PSCENC =         6.27222434
  Ewald energy   TEWEN  =      2606.06587534
  -Hartree energ DENC   =     -3088.03681809
  -exchange      EXHF   =         0.00000000
  -V(xc)+E(xc)   XCENC  =        55.07192748
  PAW double counting   =      1747.98325214    -1750.70009445
  entropy T*S    EENTRO =        -0.00000000
  eigenvalues    EBANDS =      -202.07989078
  atomic energy  EATOM  =       588.50889549
  Solvation  Ediel_sol  =         0.00000000
  ---------------------------------------------------
  free energy    TOTEN  =       -36.91462853 eV

  energy without entropy =      -36.91462853  energy(sigma->0) =      -36.91462853


--------------------------------------------------------------------------------------------------------




--------------------------------------- Iteration      1(   9)  ---------------------------------------


    POTLOK:  cpu time    0.1046: real time    0.1059
    SETDIJ:  cpu time    0.0020: real time    0.0020
     EDDAV:  cpu time    1.0949: real time    1.1123
       DOS:  cpu time    0.0001: real time    0.0001
    CHARGE:  cpu time    0.0886: real time    0.0944
    MIXING:  cpu time    0.0037: real time    0.0037
    --------------------------------------------
      LOOP:  cpu time    1.2939: real time    1.3184

 eigenvalue-minimisations  :   456
 total energy-change (2. order) : 0.2016897E-02  (-0.2113489E-03)
 number of electron      16.0000000 magnetization 
 augmentation part        0.3842718 magnetization 

 Broyden mixing:
  rms(total) = 0.10473E-01    rms(broyden)= 0.10469E-01
  rms(prec ) = 0.21475E-01
  weight for this iteration     100.00

 eigenvalues of (default mixing * dielectric matrix)
  average eigenvalue GAMMA=   2.2625
  0.9997  3.4692  2.6240  1.9569

 Free energy of the ion-electron system (eV)
  ---------------------------------------------------
  alpha Z        PSCENC =         6.27222434
  Ewald energy   TEWEN  =      2606.06587534
  -Hartree energ DENC   =     -3089.61662102
  -exchange      EXHF   =         0.00000000
  -V(xc)+E(xc)   XCENC  =        55.09882270
  PAW double counting   =      1743.51648025    -1746.23637485
  entropy T*S    EENTRO =        -0.00000000
  eigenvalues    EBANDS =      -200.52191388
  atomic energy  EATOM  =       588.50889549
  Solvation  Ediel_sol  =         0.00000000
  ---------------------------------------------------
  free energy    TOTEN  =       -36.91261163 eV

  energy without entropy =      -36.91261163  energy(sigma->0) =      -36.91261163


--------------------------------------------------------------------------------------------------------




--------------------------------------- Iteration      1(  10)  ---------------------------------------


    POTLOK:  cpu time    0.1197: real time    0.1329
    SETDIJ:  cpu time    0.0023: real time    0.0024
     EDDAV:  cpu time    1.0669: real time    1.0995
       DOS:  cpu time    0.0002: real time    0.0002
    CHARGE:  cpu time    0.0813: real time    0.0823
    MIXING:  cpu time    0.0054: real time    0.0054
    --------------------------------------------
      LOOP:  cpu time    1.2757: real time    1.3226

 eigenvalue-minimisations  :   412
 total energy-change (2. order) : 0.4714387E-02  (-0.6338585E-03)
 number of electron      16.0000000 magnetization 
 augmentation part        0.3836574 magnetization 

 Broyden mixing:
  rms(total) = 0.68911E-02    rms(broyden)= 0.68856E-02
  rms(prec ) = 0.97533E-02
  weight for this iteration     100.00

 eigenvalues of (default mixing * dielectric matrix)
  average eigenvalue GAMMA=   2.0726
  3.6437  2.2059  2.2059  1.0928  1.2145

 Free energy of the ion-electron system (eV)
  ---------------------------------------------------
  alpha Z        PSCENC =         6.27222434
  Ewald energy   TEWEN  =      2606.06587534
  -Hartree energ DENC   =     -3096.61207883
  -exchange      EXHF   =         0.00000000
  -V(xc)+E(xc)   XCENC  =        55.17610111
  PAW double counting   =      1727.80985047    -1730.51828689
  entropy T*S    EENTRO =        -0.00000000
  eigenvalues    EBANDS =      -193.61047828
  atomic energy  EATOM  =       588.50889549
  Solvation  Ediel_sol  =         0.00000000
  ---------------------------------------------------
  free energy    TOTEN  =       -36.90789725 eV

  energy without entropy =      -36.90789725  energy(sigma->0) =      -36.90789725


--------------------------------------------------------------------------------------------------------




--------------------------------------- Iteration      1(  11)  ---------------------------------------


    POTLOK:  cpu time    0.1109: real time    0.1139
    SETDIJ:  cpu time    0.0018: real time    0.0018
     EDDAV:  cpu time    1.0065: real time    1.0245
       DOS:  cpu time    0.0002: real time    0.0002
    CHARGE:  cpu time    0.0810: real time    0.0812
    MIXING:  cpu time    0.0038: real time    0.0038
    --------------------------------------------
      LOOP:  cpu time    1.2042: real time    1.2254

 eigenvalue-minimisations  :   396
 total energy-change (2. order) :-0.1287427E-02  (-0.1330875E-03)
 number of electron      16.0000000 magnetization 
 augmentation part        0.3831415 magnetization 

 Broyden mixing:
  rms(total) = 0.69500E-02    rms(broyden)= 0.69470E-02
  rms(prec ) = 0.84755E-02
  weight for this iteration     100.00

 eigenvalues of (default mixing * dielectric matrix)
  average eigenvalue GAMMA=   2.5422
  5.9459  2.8838  2.4591  2.0239  1.0002  0.9403

 Free energy of the ion-electron system (eV)
  ---------------------------------------------------
  alpha Z        PSCENC =         6.27222434
  Ewald energy   TEWEN  =      2606.06587534
  -Hartree energ DENC   =     -3098.44530147
  -exchange      EXHF   =         0.00000000
  -V(xc)+E(xc)   XCENC  =        55.20028638
  PAW double counting   =      1748.04132982    -1750.75597030
  entropy T*S    EENTRO =        -0.00000000
  eigenvalues    EBANDS =      -191.79652427
  atomic energy  EATOM  =       588.50889549
  Solvation  Ediel_sol  =         0.00000000
  ---------------------------------------------------
  free energy    TOTEN  =       -36.90918467 eV

  energy without entropy =      -36.90918467  energy(sigma->0) =      -36.90918467


--------------------------------------------------------------------------------------------------------




--------------------------------------- Iteration      1(  12)  ---------------------------------------


    POTLOK:  cpu time    0.1029: real time    0.1043
    SETDIJ:  cpu time    0.0019: real time    0.0019
     EDDAV:  cpu time    0.9396: real time    0.9427
       DOS:  cpu time    0.0002: real time    0.0002
    CHARGE:  cpu time    0.0829: real time    0.0835
    MIXING:  cpu time    0.0039: real time    0.0039
    --------------------------------------------
      LOOP:  cpu time    1.1314: real time    1.1365

 eigenvalue-minimisations  :   380
 total energy-change (2. order) :-0.9098645E-03  (-0.2910769E-04)
 number of electron      16.0000000 magnetization 
 augmentation part        0.3832440 magnetization 

 Broyden mixing:
  rms(total) = 0.21064E-02    rms(broyden)= 0.21063E-02
  rms(prec ) = 0.28299E-02
  weight for this iteration     100.00

 eigenvalues of (default mixing * dielectric matrix)
  average eigenvalue GAMMA=   2.3923
  5.7651  2.9705  2.5915  1.9998  1.0119  1.2800  1.1272

 Free energy of the ion-electron system (eV)
  ---------------------------------------------------
  alpha Z        PSCENC =         6.27222434
  Ewald energy   TEWEN  =      2606.06587534
  -Hartree energ DENC   =     -3099.42185559
  -exchange      EXHF   =         0.00000000
  -V(xc)+E(xc)   XCENC  =        55.18609589
  PAW double counting   =      1736.01091961    -1738.72521407
  entropy T*S    EENTRO =        -0.00000000
  eigenvalues    EBANDS =      -190.80703555
  atomic energy  EATOM  =       588.50889549
  Solvation  Ediel_sol  =         0.00000000
  ---------------------------------------------------
  free energy    TOTEN  =       -36.91009454 eV

  energy without entropy =      -36.91009454  energy(sigma->0) =      -36.91009454


--------------------------------------------------------------------------------------------------------




--------------------------------------- Iteration      1(  13)  ---------------------------------------


    POTLOK:  cpu time    0.1013: real time    0.1020
    SETDIJ:  cpu time    0.0019: real time    0.0019
     EDDAV:  cpu time    0.9732: real time    0.9775
       DOS:  cpu time    0.0005: real time    0.0006
    CHARGE:  cpu time    0.0973: real time    0.1117
    MIXING:  cpu time    0.0039: real time    0.0039
    --------------------------------------------
      LOOP:  cpu time    1.1781: real time    1.1976

 eigenvalue-minimisations  :   404
 total energy-change (2. order) :-0.9776628E-03  (-0.7037372E-05)
 number of electron      16.0000000 magnetization 
 augmentation part        0.3832902 magnetization 

 Broyden mixing:
  rms(total) = 0.13625E-02    rms(broyden)= 0.13625E-02
  rms(prec ) = 0.17415E-02
  weight for this iteration     100.00

 eigenvalues of (default mixing * dielectric matrix)
  average eigenvalue GAMMA=   2.7121
  7.5211  4.1211  2.5516  2.5288  2.0510  1.0055  0.9590  0.9590

 Free energy of the ion-electron system (eV)
  ---------------------------------------------------
  alpha Z        PSCENC =         6.27222434
  Ewald energy   TEWEN  =      2606.06587534
  -Hartree energ DENC   =     -3099.66289600
  -exchange      EXHF   =         0.00000000
  -V(xc)+E(xc)   XCENC  =        55.18426885
  PAW double counting   =      1736.46145573    -1739.17394023
  entropy T*S    EENTRO =        -0.00000000
  eigenvalues    EBANDS =      -190.56695573
  atomic energy  EATOM  =       588.50889549
  Solvation  Ediel_sol  =         0.00000000
  ---------------------------------------------------
  free energy    TOTEN  =       -36.91107220 eV

  energy without entropy =      -36.91107220  energy(sigma->0) =      -36.91107220


--------------------------------------------------------------------------------------------------------




--------------------------------------- Iteration      1(  14)  ---------------------------------------


    POTLOK:  cpu time    0.1284: real time    0.1413
    SETDIJ:  cpu time    0.0027: real time    0.0029
     EDDAV:  cpu time    1.4056: real time    1.5336
       DOS:  cpu time    0.0002: real time    0.0005
    CHARGE:  cpu time    0.0881: real time    0.0901
    MIXING:  cpu time    0.0040: real time    0.0040
    --------------------------------------------
      LOOP:  cpu time    1.6291: real time    1.7724

 eigenvalue-minimisations  :   408
 total energy-change (2. order) :-0.8004093E-03  (-0.1069142E-04)
 number of electron      16.0000000 magnetization 
 augmentation part        0.3833174 magnetization 

 Broyden mixing:
  rms(total) = 0.52893E-03    rms(broyden)= 0.52887E-03
  rms(prec ) = 0.66541E-03
  weight for this iteration     100.00

 eigenvalues of (default mixing * dielectric matrix)
  average eigenvalue GAMMA=   2.8062
  8.1514  4.7094  2.6846  2.5878  2.0588  2.0588  1.0162  1.0162  0.9723

 Free energy of the ion-electron system (eV)
  ---------------------------------------------------
  alpha Z        PSCENC =         6.27222434
  Ewald energy   TEWEN  =      2606.06587534
  -Hartree energ DENC   =     -3099.83417137
  -exchange      EXHF   =         0.00000000
  -V(xc)+E(xc)   XCENC  =        55.18158619
  PAW double counting   =      1734.01030827    -1736.72213167
  entropy T*S    EENTRO =        -0.00000000
  eigenvalues    EBANDS =      -190.39445920
  atomic energy  EATOM  =       588.50889549
  Solvation  Ediel_sol  =         0.00000000
  ---------------------------------------------------
  free energy    TOTEN  =       -36.91187261 eV

  energy without entropy =      -36.91187261  energy(sigma->0) =      -36.91187261


--------------------------------------------------------------------------------------------------------




--------------------------------------- Iteration      1(  15)  ---------------------------------------


    POTLOK:  cpu time    0.1043: real time    0.1050
    SETDIJ:  cpu time    0.0024: real time    0.0024
     EDDAV:  cpu time    0.9783: real time    0.9942
       DOS:  cpu time    0.0002: real time    0.0002
    CHARGE:  cpu time    0.0954: real time    0.1000
    MIXING:  cpu time    0.0060: real time    0.0062
    --------------------------------------------
      LOOP:  cpu time    1.1865: real time    1.2082

 eigenvalue-minimisations  :   392
 total energy-change (2. order) :-0.1477888E-03  (-0.1209843E-05)
 number of electron      16.0000000 magnetization 
 augmentation part        0.3833134 magnetization 

 Broyden mixing:
  rms(total) = 0.18399E-03    rms(broyden)= 0.18398E-03
  rms(prec ) = 0.27180E-03
  weight for this iteration     100.00

 eigenvalues of (default mixing * dielectric matrix)
  average eigenvalue GAMMA=   2.7606
  8.3304  4.8384  3.2006  2.5276  2.5276  2.0483  0.9535  1.0193  1.0193  1.1406

 Free energy of the ion-electron system (eV)
  ---------------------------------------------------
  alpha Z        PSCENC =         6.27222434
  Ewald energy   TEWEN  =      2606.06587534
  -Hartree energ DENC   =     -3099.88194220
  -exchange      EXHF   =         0.00000000
  -V(xc)+E(xc)   XCENC  =        55.18177671
  PAW double counting   =      1734.47798075    -1737.19007797
  entropy T*S    EENTRO =        -0.00000000
  eigenvalues    EBANDS =      -190.34675286
  atomic energy  EATOM  =       588.50889549
  Solvation  Ediel_sol  =         0.00000000
  ---------------------------------------------------
  free energy    TOTEN  =       -36.91202040 eV

  energy without entropy =      -36.91202040  energy(sigma->0) =      -36.91202040


--------------------------------------------------------------------------------------------------------




--------------------------------------- Iteration      1(  16)  ---------------------------------------


    POTLOK:  cpu time    0.1309: real time    0.1452
    SETDIJ:  cpu time    0.0029: real time    0.0031
     EDDAV:  cpu time    1.1092: real time    1.1656
       DOS:  cpu time    0.0002: real time    0.0002
    CHARGE:  cpu time    0.0830: real time    0.0845
    MIXING:  cpu time    0.0060: real time    0.0065
    --------------------------------------------
      LOOP:  cpu time    1.3322: real time    1.4050

 eigenvalue-minimisations  :   412
 total energy-change (2. order) :-0.2620952E-04  (-0.2270373E-06)
 number of electron      16.0000000 magnetization 
 augmentation part        0.3832988 magnetization 

 Broyden mixing:
  rms(total) = 0.13366E-03    rms(broyden)= 0.13359E-03
  rms(prec ) = 0.19168E-03
  weight for this iteration     100.00

 eigenvalues of (default mixing * dielectric matrix)
  average eigenvalue GAMMA=   2.7725
  8.4437  5.1605  3.4187  2.6327  2.6327  2.1137  2.1137  1.0390  1.0109  0.9662
  0.9662

 Free energy of the ion-electron system (eV)
  ---------------------------------------------------
  alpha Z        PSCENC =         6.27222434
  Ewald energy   TEWEN  =      2606.06587534
  -Hartree energ DENC   =     -3099.94241800
  -exchange      EXHF   =         0.00000000
  -V(xc)+E(xc)   XCENC  =        55.18269012
  PAW double counting   =      1734.45992811    -1737.17235827
  entropy T*S    EENTRO =        -0.00000000
  eigenvalues    EBANDS =      -190.28688373
  atomic energy  EATOM  =       588.50889549
  Solvation  Ediel_sol  =         0.00000000
  ---------------------------------------------------
  free energy    TOTEN  =       -36.91204661 eV

  energy without entropy =      -36.91204661  energy(sigma->0) =      -36.91204661


--------------------------------------------------------------------------------------------------------




--------------------------------------- Iteration      1(  17)  ---------------------------------------


    POTLOK:  cpu time    0.1142: real time    0.1339
    SETDIJ:  cpu time    0.0022: real time    0.0023
     EDDAV:  cpu time    0.7775: real time    0.8012
       DOS:  cpu time    0.0002: real time    0.0002
    CHARGE:  cpu time    0.0913: real time    0.0944
    MIXING:  cpu time    0.0042: real time    0.0042
    --------------------------------------------
      LOOP:  cpu time    0.9895: real time    1.0362

 eigenvalue-minimisations  :   264
 total energy-change (2. order) :-0.1146702E-04  (-0.5624187E-07)
 number of electron      16.0000000 magnetization 
 augmentation part        0.3833005 magnetization 

 Broyden mixing:
  rms(total) = 0.43528E-04    rms(broyden)= 0.43524E-04
  rms(prec ) = 0.83704E-04
  weight for this iteration     100.00

 eigenvalues of (default mixing * dielectric matrix)
  average eigenvalue GAMMA=   2.6796
  8.4381  5.3194  3.6308  2.7065  2.5638  2.0727  2.0727  0.9642  1.0121  1.0121
  1.0887  1.2740

 Free energy of the ion-electron system (eV)
  ---------------------------------------------------
  alpha Z        PSCENC =         6.27222434
  Ewald energy   TEWEN  =      2606.06587534
  -Hartree energ DENC   =     -3099.94937647
  -exchange      EXHF   =         0.00000000
  -V(xc)+E(xc)   XCENC  =        55.18225172
  PAW double counting   =      1734.44890239    -1737.16119912
  entropy T*S    EENTRO =        -0.00000000
  eigenvalues    EBANDS =      -190.27963176
  atomic energy  EATOM  =       588.50889549
  Solvation  Ediel_sol  =         0.00000000
  ---------------------------------------------------
  free energy    TOTEN  =       -36.91205807 eV

  energy without entropy =      -36.91205807  energy(sigma->0) =      -36.91205807


--------------------------------------------------------------------------------------------------------




--------------------------------------- Iteration      1(  18)  ---------------------------------------


    POTLOK:  cpu time    0.1071: real time    0.1085
    SETDIJ:  cpu time    0.0025: real time    0.0025
     EDDAV:  cpu time    0.8053: real time    0.8290
       DOS:  cpu time    0.0002: real time    0.0002
    CHARGE:  cpu time    0.0961: real time    0.1006
    MIXING:  cpu time    0.0050: real time    0.0050
    --------------------------------------------
      LOOP:  cpu time    1.0160: real time    1.0457

 eigenvalue-minimisations  :   280
 total energy-change (2. order) :-0.3819254E-05  (-0.1044881E-07)
 number of electron      16.0000000 magnetization 
 augmentation part        0.3833026 magnetization 

 Broyden mixing:
  rms(total) = 0.27609E-04    rms(broyden)= 0.27606E-04
  rms(prec ) = 0.54284E-04
  weight for this iteration     100.00

 eigenvalues of (default mixing * dielectric matrix)
  average eigenvalue GAMMA=   2.8257
  8.4288  6.0102  4.4308  3.3828  2.5915  2.5915  2.0873  2.0873  1.0011  1.0011
  0.9749  1.0075  1.1392

 Free energy of the ion-electron system (eV)
  ---------------------------------------------------
  alpha Z        PSCENC =         6.27222434
  Ewald energy   TEWEN  =      2606.06587534
  -Hartree energ DENC   =     -3099.95767668
  -exchange      EXHF   =         0.00000000
  -V(xc)+E(xc)   XCENC  =        55.18216692
  PAW double counting   =      1734.40969483    -1737.12195352
  entropy T*S    EENTRO =        -0.00000000
  eigenvalues    EBANDS =      -190.27128861
  atomic energy  EATOM  =       588.50889549
  Solvation  Ediel_sol  =         0.00000000
  ---------------------------------------------------
  free energy    TOTEN  =       -36.91206189 eV

  energy without entropy =      -36.91206189  energy(sigma->0) =      -36.91206189


--------------------------------------------------------------------------------------------------------




--------------------------------------- Iteration      1(  19)  ---------------------------------------


    POTLOK:  cpu time    0.1115: real time    0.1123
    SETDIJ:  cpu time    0.0024: real time    0.0024
     EDDAV:  cpu time    0.7947: real time    0.8221
       DOS:  cpu time    0.0002: real time    0.0002
    CHARGE:  cpu time    0.0939: real time    0.0972
    MIXING:  cpu time    0.0054: real time    0.0055
    --------------------------------------------
      LOOP:  cpu time    1.0081: real time    1.0396

 eigenvalue-minimisations  :   264
 total energy-change (2. order) :-0.5322944E-05  (-0.3394074E-08)
 number of electron      16.0000000 magnetization 
 augmentation part        0.3833037 magnetization 

 Broyden mixing:
  rms(total) = 0.31594E-04    rms(broyden)= 0.31591E-04
  rms(prec ) = 0.34696E-04
  weight for this iteration     100.00

 eigenvalues of (default mixing * dielectric matrix)
  average eigenvalue GAMMA=   2.9595
  8.3930  7.4703  4.9113  3.7253  2.4840  2.4840  2.5620  2.2647  2.0360  0.9829
  0.9829  1.0044  1.0044  1.1286

 Free energy of the ion-electron system (eV)
  ---------------------------------------------------
  alpha Z        PSCENC =         6.27222434
  Ewald energy   TEWEN  =      2606.06587534
  -Hartree energ DENC   =     -3099.97052718
  -exchange      EXHF   =         0.00000000
  -V(xc)+E(xc)   XCENC  =        55.18214699
  PAW double counting   =      1734.37981953    -1737.09205635
  entropy T*S    EENTRO =        -0.00000000
  eigenvalues    EBANDS =      -190.25844538
  atomic energy  EATOM  =       588.50889549
  Solvation  Ediel_sol  =         0.00000000
  ---------------------------------------------------
  free energy    TOTEN  =       -36.91206722 eV

  energy without entropy =      -36.91206722  energy(sigma->0) =      -36.91206722


--------------------------------------------------------------------------------------------------------




--------------------------------------- Iteration      1(  20)  ---------------------------------------


    POTLOK:  cpu time    0.1089: real time    0.1106
    SETDIJ:  cpu time    0.0025: real time    0.0027
     EDDAV:  cpu time    0.8142: real time    0.8510
       DOS:  cpu time    0.0002: real time    0.0002
    CHARGE:  cpu time    0.0884: real time    0.0896
    MIXING:  cpu time    0.0047: real time    0.0047
    --------------------------------------------
      LOOP:  cpu time    1.0188: real time    1.0587

 eigenvalue-minimisations  :   260
 total energy-change (2. order) :-0.1298073E-05  (-0.8318654E-09)
 number of electron      16.0000000 magnetization 
 augmentation part        0.3833038 magnetization 

 Broyden mixing:
  rms(total) = 0.17171E-04    rms(broyden)= 0.17170E-04
  rms(prec ) = 0.18366E-04
  weight for this iteration     100.00

 eigenvalues of (default mixing * dielectric matrix)
  average eigenvalue GAMMA=   3.0145
  9.4198  8.4307  5.2590  3.6672  3.0851  2.5449  2.5449  2.0863  2.0863  1.1615
  1.0194  1.0021  1.0021  0.9537  0.9537

 Free energy of the ion-electron system (eV)
  ---------------------------------------------------
  alpha Z        PSCENC =         6.27222434
  Ewald energy   TEWEN  =      2606.06587534
  -Hartree energ DENC   =     -3099.97340973
  -exchange      EXHF   =         0.00000000
  -V(xc)+E(xc)   XCENC  =        55.18218215
  PAW double counting   =      1734.43282002    -1737.14507682
  entropy T*S    EENTRO =        -0.00000000
  eigenvalues    EBANDS =      -190.25557931
  atomic energy  EATOM  =       588.50889549
  Solvation  Ediel_sol  =         0.00000000
  ---------------------------------------------------
  free energy    TOTEN  =       -36.91206851 eV

  energy without entropy =      -36.91206851  energy(sigma->0) =      -36.91206851


--------------------------------------------------------------------------------------------------------




--------------------------------------- Iteration      1(  21)  ---------------------------------------


    POTLOK:  cpu time    0.1121: real time    0.1137
    SETDIJ:  cpu time    0.0024: real time    0.0024
     EDDAV:  cpu time    0.7909: real time    0.8069
       DOS:  cpu time    0.0002: real time    0.0002
    --------------------------------------------
      LOOP:  cpu time    0.9056: real time    0.9233

 eigenvalue-minimisations  :   268
 total energy-change (2. order) :-0.4107669E-06  (-0.6883421E-09)
 number of electron      16.0000000 magnetization 
 augmentation part        0.3833038 magnetization 

 Free energy of the ion-electron system (eV)
  ---------------------------------------------------
  alpha Z        PSCENC =         6.27222434
  Ewald energy   TEWEN  =      2606.06587534
  -Hartree energ DENC   =     -3099.97583351
  -exchange      EXHF   =         0.00000000
  -V(xc)+E(xc)   XCENC  =        55.18224208
  PAW double counting   =      1734.41760575    -1737.12988094
  entropy T*S    EENTRO =        -0.00000000
  eigenvalues    EBANDS =      -190.25319747
  atomic energy  EATOM  =       588.50889549
  Solvation  Ediel_sol  =         0.00000000
  ---------------------------------------------------
  free energy    TOTEN  =       -36.91206893 eV

  energy without entropy =      -36.91206893  energy(sigma->0) =      -36.91206893


--------------------------------------------------------------------------------------------------------




 average (electrostatic) potential at core
  the test charge radii are     0.6991
  (the norm of the test charge is              1.0000)
       1 -58.1659       2 -58.1659       3 -58.1659       4 -58.1659



 E-fermi :  -2.8200     XC(G=0):  -2.1849     alpha+bet : -1.9131


 k-point     1 :       0.0000    0.0000    0.0000
  band No.  band energies     occupation 
      1     -22.3049      2.00000
      2     -17.0284      2.00000
      3     -16.0042      2.00000
      4     -10.3931      2.00000
      5      -9.1535      2.00000
      6      -5.7486      2.00000
      7      -5.7477      2.00000
      8      -5.0972      2.00000
      9      -1.0354      0.00000
     10       0.5195      0.00000
     11       1.3099      0.00000
     12       1.6425      0.00000

 k-point     2 :       0.2500    0.0000    0.0000
  band No.  band energies     occupation 
      1     -21.9343      2.00000
      2     -19.0366      2.00000
      3     -13.4534      2.00000
      4      -9.9506      2.00000
      5      -8.7892      2.00000
      6      -7.1363      2.00000
      7      -6.6615      2.00000
      8      -6.4574      2.00000
      9       1.0233      0.00000
     10       1.0957      0.00000
     11       1.8202      0.00000
     12       2.1589      0.00000

 k-point     3 :       0.5000    0.0000    0.0000
  band No.  band energies     occupation 
      1     -20.8323      2.00000
      2     -20.8323      2.00000
      3     -10.1596      2.00000
      4     -10.1596      2.00000
      5      -8.6540      2.00000
      6      -8.6540      2.00000
      7      -7.7758      2.00000
      8      -7.7758      2.00000
      9       2.5323      0.00000
     10       2.5323      0.00000
     11       3.3333      0.00000
     12       3.3333      0.00000

 k-point     4 :       0.0000    0.1250    0.0000
  band No.  band energies     occupation 
      1     -22.0268      2.00000
      2     -16.7903      2.00000
      3     -15.7720      2.00000
      4     -10.2687      2.00000
      5     -10.0604      2.00000
      6      -6.7773      2.00000
      7      -6.3416      2.00000
      8      -4.7583      2.00000
      9      -1.1403      0.00000
     10       0.8974      0.00000
     11       1.6928      0.00000
     12       2.0298      0.00000

 k-point     5 :       0.2500    0.1250    0.0000
  band No.  band energies     occupation 
      1     -21.6575      2.00000
      2     -18.7747      2.00000
      3     -13.2934      2.00000
      4      -9.8821      2.00000
      5      -9.6217      2.00000
      6      -7.9159      2.00000
      7      -7.0029      2.00000
      8      -6.3513      2.00000
      9       0.9248      0.00000
     10       1.4013      0.00000
     11       2.2022      0.00000
     12       2.5462      0.00000

 k-point     6 :       0.5000    0.1250    0.0000
  band No.  band energies     occupation 
      1     -20.5598      2.00000
      2     -20.5598      2.00000
      3     -10.2537      2.00000
      4     -10.2537      2.00000
      5      -8.7274      2.00000
      6      -8.7274      2.00000
      7      -8.3349      2.00000
      8      -8.3349      2.00000
      9       2.9111      0.00000
     10       2.9111      0.00000
     11       3.7153      0.00000
     12       3.7154      0.00000

 k-point     7 :       0.0000    0.2500    0.0000
  band No.  band energies     occupation 
      1     -21.1981      2.00000
      2     -16.0777      2.00000
      3     -15.2055      2.00000
      4     -12.4971      2.00000
      5      -9.0794      2.00000
      6      -8.9494      2.00000
      7      -7.8727      2.00000
      8      -3.7494      2.00000
      9      -1.7648      0.00000
     10       2.0311      0.00000
     11       2.8375      0.00000
     12       3.1919      0.00000

 k-point     8 :       0.2500    0.2500    0.0000
  band No.  band energies     occupation 
      1     -20.8323      2.00000
      2     -17.9994      2.00000
      3     -13.2689      2.00000
      4     -11.7111      2.00000
      5     -10.1601      2.00000
      6      -8.6540      2.00000
      7      -7.7754      2.00000
      8      -5.4792      2.00000
      9       0.1183      0.00000
     10       2.5323      0.00000
     11       3.3333      0.00000
     12       3.7079      0.00000

 k-point     9 :       0.5000    0.2500    0.0000
  band No.  band energies     occupation 
      1     -19.7483      2.00000
      2     -19.7483      2.00000
      3     -11.7511      2.00000
      4     -11.7511      2.00000
      5      -9.4004      2.00000
      6      -9.4004      2.00000
      7      -7.4090      2.00000
      8      -7.4090      2.00000
      9       2.5201      0.00000
     10       2.5201      0.00000
     11       4.0382      0.00000
     12       4.0382      0.00000

 k-point    10 :       0.0000    0.3750    0.0000
  band No.  band energies     occupation 
      1     -19.8382      2.00000
      2     -15.8969      2.00000
      3     -14.8979      2.00000
      4     -13.1542      2.00000
      5     -11.2425      2.00000
      6      -9.8141      2.00000
      7      -7.5054      2.00000
      8      -3.3453      2.00000
      9      -2.1029      0.00000
     10       2.7724      0.00000
     11       3.9144      0.00000
     12       4.7247      0.00000

 k-point    11 :       0.2500    0.3750    0.0000
  band No.  band energies     occupation 
      1     -19.4797      2.00000
      2     -16.8126      2.00000
      3     -15.1573      2.00000
      4     -12.6133      2.00000
      5     -11.3328      2.00000
      6      -8.8877      2.00000
      7      -7.1241      2.00000
      8      -4.5038      2.00000
      9      -1.1595      0.00000
     10       1.8880      0.00000
     11       4.4049      0.00000
     12       5.3028      0.00000

 k-point    12 :       0.5000    0.3750    0.0000
  band No.  band energies     occupation 
      1     -18.4272      2.00000
      2     -18.4272      2.00000
      3     -14.1852      2.00000
      4     -14.1852      2.00000
      5      -9.2506      2.00000
      6      -9.2506      2.00000
      7      -6.0423      2.00000
      8      -6.0423      2.00000
      9       0.2844      0.00000
     10       0.2844      0.00000
     11       5.2363      0.00000
     12       5.2363      0.00000

 k-point    13 :       0.0000    0.5000    0.0000
  band No.  band energies     occupation 
      1     -17.9993      2.00000
      2     -17.9993      2.00000
      3     -13.2697      2.00000
      4     -13.2697      2.00000
      5     -11.7103      2.00000
      6     -11.7103      2.00000
      7      -5.4791      2.00000
      8      -5.4791      2.00000
      9       0.1181      0.00000
     10       0.1181      0.00000
     11       6.5165      0.00000
     12       6.5165      0.00000

 k-point    14 :       0.2500    0.5000    0.0000
  band No.  band energies     occupation 
      1     -17.6696      2.00000
      2     -17.6696      2.00000
      3     -14.7667      2.00000
      4     -14.7667      2.00000
      5     -10.1714      2.00000
      6     -10.1714      2.00000
      7      -5.3034      2.00000
      8      -5.3034      2.00000
      9      -0.4740      0.00000
     10      -0.4740      0.00000
     11       6.3134      0.00000
     12       6.3134      0.00000

 k-point    15 :       0.5000    0.5000    0.0000
  band No.  band energies     occupation 
      1     -17.0275      2.00000
      2     -17.0275      2.00000
      3     -16.0055      2.00000
      4     -16.0055      2.00000
      5      -9.1531      2.00000
      6      -9.1531      2.00000
      7      -5.0969      2.00000
      8      -5.0969      2.00000
      9      -1.0359      0.00000
     10      -1.0359      0.00000
     11       4.7297      0.00000
     12       4.7297      0.00000


--------------------------------------------------------------------------------------------------------


 soft charge-density along one line, spin component           1
         0         1         2         3         4         5         6         7         8         9
 total charge-density along one line

 pseudopotential strength for first ion, spin component:           1
 10.216  13.586  -0.000  -0.000  -0.000   0.000   0.000   0.000
 13.586  18.066  -0.000  -0.000  -0.000   0.000   0.000   0.000
 -0.000  -0.000  -4.347   0.000  -0.000   8.503  -0.000   0.000
 -0.000  -0.000   0.000  -4.340  -0.000  -0.000   8.493   0.000
 -0.000  -0.000  -0.000  -0.000  -4.347   0.000   0.000   8.503
  0.000   0.000   8.503  -0.000   0.000 -18.767   0.000  -0.000
  0.000   0.000  -0.000   8.493   0.000   0.000 -18.758  -0.000
  0.000   0.000   0.000   0.000   8.503  -0.000  -0.000 -18.767
 total augmentation occupancy for first ion, spin component:           1
  8.344  -3.731   0.000   0.000  -0.001   0.000   0.000  -0.000
 -3.731   1.724  -0.000   0.000   0.000   0.000   0.000   0.000
  0.000  -0.000   1.841  -0.000   0.000   0.174  -0.000  -0.000
  0.000   0.000  -0.000   1.213  -0.000  -0.000   0.078   0.000
 -0.001   0.000   0.000  -0.000   1.841  -0.000   0.000   0.174
  0.000   0.000   0.174  -0.000  -0.000   0.018   0.000   0.000
  0.000   0.000  -0.000   0.078   0.000   0.000   0.005  -0.000
 -0.000   0.000  -0.000   0.000   0.174   0.000  -0.000   0.018


------------------------ aborting loop because EDIFF is reached ----------------------------------------


    CHARGE:  cpu time    0.0811: real time    0.0817
    FORLOC:  cpu time    0.0107: real time    0.0107
    FORNL :  cpu time    0.2846: real time    0.2855
    STRESS:  cpu time    0.5249: real time    0.5392
    FORCOR:  cpu time    0.1254: real time    0.1278
    FORHAR:  cpu time    0.0296: real time    0.0298
    MIXING:  cpu time    0.0048: real time    0.0048
    OFIELD:  cpu time    0.0000: real time    0.0000

  FORCE on cell =-STRESS in cart. coord.  units (eV):
  Direction    XX          YY          ZZ          XY          YZ          ZX
  --------------------------------------------------------------------------------------
  Alpha Z     6.27222     6.27222     6.27222
  Ewald    3145.22969  3145.22970 -3684.39381     0.00000     0.00000     0.00000
  Hartree  3077.47078  3077.45906 -3054.95441    -0.00000    -0.00000    -0.00000
  E(xc)     -59.51517   -59.51563   -61.74730     0.00000    -0.00000     0.00000
  Local   -6393.90029 -6393.86628  6533.55987    -0.00000     0.00000    -0.00000
  n-local   -14.33311   -14.32797   -13.03042     0.05134     0.00000     0.00000
  augment    -1.56264    -1.56374    -1.43767    -0.00000     0.00000    -0.00000
  Kinetic   240.75649   240.95759   275.16932    -3.17999    -0.00000    -0.00000
  Fock        0.00000     0.00000     0.00000     0.00000     0.00000     0.00000
  -------------------------------------------------------------------------------------
  Total       0.41797     0.64494    -0.56219     0.00000     0.00000     0.00000
  in kB       3.19568     4.93108    -4.29835     0.00000     0.00000     0.00000
  external pressure =        1.28 kB  Pullay stress =        0.00 kB


 VOLUME and BASIS-vectors are now :
 -----------------------------------------------------------------------------
  energy-cutoff  :      400.00
  volume of cell :      209.55
      direct lattice vectors                 reciprocal lattice vectors
     4.260000229  0.000000000  0.000000000     0.234741771  0.000000000  0.000000000
     0.000000000  2.459512234  0.000000000     0.000000000  0.406584682  0.000000000
     0.000000000  0.000000000 20.000000000     0.000000000  0.000000000  0.050000000

  length of vectors
     4.260000229  2.459512234 20.000000000     0.234741771  0.406584682  0.050000000


 FORCES acting on ions
    electron-ion (+dipol)            ewald-force                    non-local-force                 convergence-correction
 -----------------------------------------------------------------------------------------------
   0.156E-01 -.571E-09 0.832E-06   0.423E-05 0.236E-07 -.597E-18   0.491E-02 0.173E-16 0.132E-22   0.149E-05 0.218E-13 -.133E-13
   -.156E-01 -.571E-09 -.832E-06   -.423E-05 0.236E-07 0.149E-17   -.491E-02 -.347E-17 -.397E-22   -.149E-05 0.252E-13 -.128E-13
   -.156E-01 -.184E-07 -.832E-06   -.392E-05 -.236E-07 -.299E-17   -.491E-02 0.104E-16 0.265E-22   -.149E-05 -.317E-13 -.129E-13
   0.156E-01 -.184E-07 0.832E-06   0.392E-05 -.236E-07 0.210E-17   0.491E-02 0.347E-17 0.132E-22   0.149E-05 -.352E-13 -.131E-13
 -----------------------------------------------------------------------------------------------
   -.379E-07 -.379E-07 0.121E-10   0.458E-14 -.131E-13 0.000E+00   0.867E-18 0.278E-16 0.132E-22   -.182E-13 -.199E-13 -.521E-13


 POSITION                                       TOTAL-FORCE (eV/Angst)
 -----------------------------------------------------------------------------------
      1.42000      0.00000     10.00000         0.020544      0.000000      0.000000
      2.84000      0.00000     10.00000        -0.020544      0.000000      0.000000
      0.71000      1.22976     10.00000        -0.020544      0.000000     -0.000000
      3.55000      1.22976     10.00000         0.020544      0.000000      0.000000
 -----------------------------------------------------------------------------------
    total drift:                               -0.000000     -0.000000      0.000000


--------------------------------------------------------------------------------------------------------



  FREE ENERGIE OF THE ION-ELECTRON SYSTEM (eV)
  ---------------------------------------------------
  free  energy   TOTEN  =       -36.91206893 eV

  energy  without entropy=      -36.91206893  energy(sigma->0) =      -36.91206893



--------------------------------------------------------------------------------------------------------


    POTLOK:  cpu time    0.1281: real time    0.1303


--------------------------------------------------------------------------------------------------------




--------------------------------------------------------------------------------------------------------


    WAVPRE:  cpu time    0.0365: real time    0.0400
    FEWALD:  cpu time    0.0003: real time    0.0003
    GENKIN:  cpu time    0.0119: real time    0.0124
    ORTHCH:  cpu time    0.0476: real time    0.0482
     LOOP+:  cpu time   27.1077: real time   28.2437


--------------------------------------- Iteration      2(   1)  ---------------------------------------


    POTLOK:  cpu time    0.1323: real time    0.1389
    SETDIJ:  cpu time    0.0022: real time    0.0022
     EDDAV:  cpu time    1.0095: real time    1.0315
       DOS:  cpu time    0.0002: real time    0.0002
    CHARGE:  cpu time    0.0840: real time    0.0851
    MIXING:  cpu time    0.0052: real time    0.0054
    --------------------------------------------
      LOOP:  cpu time    1.2334: real time    1.2634

 eigenvalue-minimisations  :   364
 total energy-change (2. order) : 0.3318760E-02  (-0.2058966E-01)
 number of electron      15.9999999 magnetization 
 augmentation part        0.3769520 magnetization 

  free energy =  -0.369087497545E+02  energy without entropy=  -0.369087497545E+02


--------------------------------------------------------------------------------------------------------




--------------------------------------- Iteration      2(   2)  ---------------------------------------


    POTLOK:  cpu time    0.1125: real time    0.1155
    SETDIJ:  cpu time    0.0019: real time    0.0019
     EDDAV:  cpu time    1.0124: real time    1.0489
       DOS:  cpu time    0.0002: real time    0.0001
    CHARGE:  cpu time    0.0908: real time    0.0916
    MIXING:  cpu time    0.0036: real time    0.0036
    --------------------------------------------
      LOOP:  cpu time    1.2214: real time    1.2616

 eigenvalue-minimisations  :   380
 total energy-change (2. order) : 0.1134469E-02  (-0.3033512E-03)
 number of electron      15.9999999 magnetization 
 augmentation part        0.3768581 magnetization 

 eigenvalues of (default mixing * dielectric matrix)
  average eigenvalue GAMMA=   2.6728
  2.6728

  free energy =  -0.369076152860E+02  energy without entropy=  -0.369076152860E+02


--------------------------------------------------------------------------------------------------------




--------------------------------------- Iteration      2(   3)  ---------------------------------------


    POTLOK:  cpu time    0.1083: real time    0.1118
    SETDIJ:  cpu time    0.0018: real time    0.0018
     EDDAV:  cpu time    1.1049: real time    1.1744
       DOS:  cpu time    0.0002: real time    0.0002
    CHARGE:  cpu time    0.0884: real time    0.0900
    MIXING:  cpu time    0.0036: real time    0.0036
    --------------------------------------------
      LOOP:  cpu time    1.3072: real time    1.3818

 eigenvalue-minimisations  :   404
 total energy-change (2. order) : 0.8273993E-03  (-0.1175222E-03)
 number of electron      15.9999999 magnetization 
 augmentation part        0.3770510 magnetization 

 eigenvalues of (default mixing * dielectric matrix)
  average eigenvalue GAMMA=   1.6761
  0.9411  2.4111

  free energy =  -0.369067878867E+02  energy without entropy=  -0.369067878867E+02


--------------------------------------------------------------------------------------------------------




--------------------------------------- Iteration      2(   4)  ---------------------------------------


    POTLOK:  cpu time    0.1090: real time    0.1126
    SETDIJ:  cpu time    0.0023: real time    0.0023
     EDDAV:  cpu time    1.1277: real time    1.1595
       DOS:  cpu time    0.0003: real time    0.0003
    CHARGE:  cpu time    0.0869: real time    0.0886
    MIXING:  cpu time    0.0040: real time    0.0040
    --------------------------------------------
      LOOP:  cpu time    1.3301: real time    1.3674

 eigenvalue-minimisations  :   420
 total energy-change (2. order) :-0.1213106E-04  (-0.6970593E-05)
 number of electron      15.9999999 magnetization 
 augmentation part        0.3770849 magnetization 

 eigenvalues of (default mixing * dielectric matrix)
  average eigenvalue GAMMA=   1.6947
  2.5150  1.2845  1.2845

  free energy =  -0.369068000177E+02  energy without entropy=  -0.369068000177E+02


--------------------------------------------------------------------------------------------------------




--------------------------------------- Iteration      2(   5)  ---------------------------------------


    POTLOK:  cpu time    0.1217: real time    0.1300
    SETDIJ:  cpu time    0.0032: real time    0.0033
     EDDAV:  cpu time    1.1466: real time    1.2347
       DOS:  cpu time    0.0002: real time    0.0003
    CHARGE:  cpu time    0.0888: real time    0.0906
    MIXING:  cpu time    0.0038: real time    0.0038
    --------------------------------------------
      LOOP:  cpu time    1.3644: real time    1.4627

 eigenvalue-minimisations  :   400
 total energy-change (2. order) :-0.1441366E-04  (-0.6970387E-06)
 number of electron      15.9999999 magnetization 
 augmentation part        0.3770966 magnetization 

 eigenvalues of (default mixing * dielectric matrix)
  average eigenvalue GAMMA=   1.6727
  2.5447  2.1557  1.1276  0.8629

  free energy =  -0.369068144314E+02  energy without entropy=  -0.369068144314E+02


--------------------------------------------------------------------------------------------------------




--------------------------------------- Iteration      2(   6)  ---------------------------------------


    POTLOK:  cpu time    0.1044: real time    0.1063
    SETDIJ:  cpu time    0.0019: real time    0.0019
     EDDAV:  cpu time    1.0046: real time    1.0190
       DOS:  cpu time    0.0002: real time    0.0002
    CHARGE:  cpu time    0.0882: real time    0.0902
    MIXING:  cpu time    0.0048: real time    0.0049
    --------------------------------------------
      LOOP:  cpu time    1.2042: real time    1.2224

 eigenvalue-minimisations  :   368
 total energy-change (2. order) :-0.1242419E-04  (-0.1772169E-06)
 number of electron      15.9999999 magnetization 
 augmentation part        0.3771031 magnetization 

 eigenvalues of (default mixing * dielectric matrix)
  average eigenvalue GAMMA=   2.0503
  3.7547  2.4040  1.9601  1.0246  1.1082

  free energy =  -0.369068268556E+02  energy without entropy=  -0.369068268556E+02


--------------------------------------------------------------------------------------------------------




--------------------------------------- Iteration      2(   7)  ---------------------------------------


    POTLOK:  cpu time    0.1056: real time    0.1080
    SETDIJ:  cpu time    0.0024: real time    0.0024
     EDDAV:  cpu time    1.0181: real time    1.0361
       DOS:  cpu time    0.0002: real time    0.0002
    CHARGE:  cpu time    0.1050: real time    0.1253
    MIXING:  cpu time    0.0056: real time    0.0057
    --------------------------------------------
      LOOP:  cpu time    1.2368: real time    1.2778

 eigenvalue-minimisations  :   384
 total energy-change (2. order) :-0.2635310E-04  (-0.5750303E-06)
 number of electron      15.9999999 magnetization 
 augmentation part        0.3771131 magnetization 

 eigenvalues of (default mixing * dielectric matrix)
  average eigenvalue GAMMA=   1.8856
  3.4139  2.5482  1.8043  1.4734  1.0368  1.0368

  free energy =  -0.369068532087E+02  energy without entropy=  -0.369068532087E+02


--------------------------------------------------------------------------------------------------------




--------------------------------------- Iteration      2(   8)  ---------------------------------------


    POTLOK:  cpu time    0.1283: real time    0.1409
    SETDIJ:  cpu time    0.0028: real time    0.0028
     EDDAV:  cpu time    0.9232: real time    0.9935
       DOS:  cpu time    0.0002: real time    0.0002
    CHARGE:  cpu time    0.0952: real time    0.1006
    MIXING:  cpu time    0.0047: real time    0.0049
    --------------------------------------------
      LOOP:  cpu time    1.1546: real time    1.2429

 eigenvalue-minimisations  :   280
 total energy-change (2. order) :-0.5259526E-05  (-0.2375156E-07)
 number of electron      15.9999999 magnetization 
 augmentation part        0.3771141 magnetization 

 eigenvalues of (default mixing * dielectric matrix)
  average eigenvalue GAMMA=   2.2918
  5.6703  2.9118  2.4234  1.9373  1.1200  1.0319  0.9479

  free energy =  -0.369068584682E+02  energy without entropy=  -0.369068584682E+02


--------------------------------------------------------------------------------------------------------




--------------------------------------- Iteration      2(   9)  ---------------------------------------


    POTLOK:  cpu time    0.1095: real time    0.1138
    SETDIJ:  cpu time    0.0020: real time    0.0020
     EDDAV:  cpu time    1.0803: real time    1.1195
       DOS:  cpu time    0.0002: real time    0.0002
    CHARGE:  cpu time    0.0935: real time    0.0984
    MIXING:  cpu time    0.0056: real time    0.0056
    --------------------------------------------
      LOOP:  cpu time    1.2910: real time    1.3396

[...]
       DOS:  cpu time    0.0002: real time    0.0002
    CHARGE:  cpu time    0.0930: real time    0.0953
    MIXING:  cpu time    0.0043: real time    0.0043
    --------------------------------------------
      LOOP:  cpu time    1.2152: real time    1.2384

 eigenvalue-minimisations  :   380
 total energy-change (2. order) :-0.1676644E-05  (-0.7762348E-05)
 number of electron      16.0000000 magnetization 
 augmentation part        0.3814804 magnetization 

  free energy =  -0.369131095100E+02  energy without entropy=  -0.369131095100E+02


--------------------------------------------------------------------------------------------------------




--------------------------------------- Iteration      6(   2)  ---------------------------------------


    POTLOK:  cpu time    0.1431: real time    0.1681
    SETDIJ:  cpu time    0.0031: real time    0.0032
     EDDAV:  cpu time    0.7505: real time    0.7694
       DOS:  cpu time    0.0002: real time    0.0002
    CHARGE:  cpu time    0.0919: real time    0.0941
    MIXING:  cpu time    0.0051: real time    0.0054
    --------------------------------------------
      LOOP:  cpu time    0.9937: real time    1.0404

 eigenvalue-minimisations  :   240
 total energy-change (2. order) :-0.6581604E-07  (-0.9402010E-07)
 number of electron      16.0000000 magnetization 
 augmentation part        0.3814782 magnetization 

 eigenvalues of (default mixing * dielectric matrix)
  average eigenvalue GAMMA=   1.4214
  1.4214

  free energy =  -0.369131095758E+02  energy without entropy=  -0.369131095758E+02


--------------------------------------------------------------------------------------------------------




--------------------------------------- Iteration      6(   3)  ---------------------------------------


    POTLOK:  cpu time    0.1249: real time    0.1297
    SETDIJ:  cpu time    0.0019: real time    0.0019
     EDDAV:  cpu time    0.7380: real time    0.8235
       DOS:  cpu time    0.0002: real time    0.0002
    CHARGE:  cpu time    0.0913: real time    0.0942
    MIXING:  cpu time    0.0038: real time    0.0038
    --------------------------------------------
      LOOP:  cpu time    0.9601: real time    1.0533

 eigenvalue-minimisations  :   232
 total energy-change (2. order) :-0.1491844E-07  (-0.1455607E-07)
 number of electron      16.0000000 magnetization 
 augmentation part        0.3814778 magnetization 

 eigenvalues of (default mixing * dielectric matrix)
  average eigenvalue GAMMA=   1.6310
  1.0902  2.1717

  free energy =  -0.369131095908E+02  energy without entropy=  -0.369131095907E+02


--------------------------------------------------------------------------------------------------------




--------------------------------------- Iteration      6(   4)  ---------------------------------------


    POTLOK:  cpu time    0.1244: real time    0.1268
    SETDIJ:  cpu time    0.0020: real time    0.0020
     EDDAV:  cpu time    0.7349: real time    0.7451
       DOS:  cpu time    0.0002: real time    0.0002
    CHARGE:  cpu time    0.0797: real time    0.0804
    MIXING:  cpu time    0.0045: real time    0.0045
    --------------------------------------------
      LOOP:  cpu time    0.9456: real time    0.9590

 eigenvalue-minimisations  :   236
 total energy-change (2. order) :-0.2018896E-07  (-0.3990251E-08)
 number of electron      16.0000000 magnetization 
 augmentation part        0.3814773 magnetization 

 eigenvalues of (default mixing * dielectric matrix)
  average eigenvalue GAMMA=   1.7665
  0.9779  2.1608  2.1608

  free energy =  -0.369131096110E+02  energy without entropy=  -0.369131096109E+02


--------------------------------------------------------------------------------------------------------




--------------------------------------- Iteration      6(   5)  ---------------------------------------


    POTLOK:  cpu time    0.1161: real time    0.1164
    SETDIJ:  cpu time    0.0019: real time    0.0019
     EDDAV:  cpu time    0.6988: real time    0.7067
       DOS:  cpu time    0.0002: real time    0.0002
    --------------------------------------------
      LOOP:  cpu time    0.8169: real time    0.8251

 eigenvalue-minimisations  :   236
 total energy-change (2. order) :-0.1487774E-07  (-0.1078617E-08)
 number of electron      16.0000000 magnetization 
 augmentation part        0.3814773 magnetization 

  free energy =  -0.369131096258E+02  energy without entropy=  -0.369131096258E+02


--------------------------------------------------------------------------------------------------------




 average (electrostatic) potential at core
  the test charge radii are     0.6991
  (the norm of the test charge is              1.0000)
       1 -58.1952       2 -58.1952       3 -58.1952       4 -58.1952



 E-fermi :  -2.9366     XC(G=0):  -2.1907     alpha+bet : -1.9059


 k-point     1 :       0.0000    0.0000    0.0000
  band No.  band energies     occupation 
      1     -22.2791      2.00000
      2     -17.0191      2.00000
      3     -15.9905      2.00000
      4     -10.3744      2.00000
      5      -9.1657      2.00000
      6      -5.7703      2.00000
      7      -5.7695      2.00000
      8      -5.0971      2.00000
      9      -1.0597      0.00000
     10       0.5159      0.00000
     11       1.3013      0.00000
     12       1.6308      0.00000

 k-point     2 :       0.2500    0.0000    0.0000
  band No.  band energies     occupation 
      1     -21.9095      2.00000
      2     -19.0193      2.00000
      3     -13.4495      2.00000
      4      -9.9335      2.00000
      5      -8.8025      2.00000
      6      -7.1527      2.00000
      7      -6.6564      2.00000
      8      -6.4773      2.00000
      9       1.0183      0.00000
     10       1.0618      0.00000
     11       1.8101      0.00000
     12       2.1457      0.00000

 k-point     3 :       0.5000    0.0000    0.0000
  band No.  band energies     occupation 
      1     -20.8103      2.00000
      2     -20.8103      2.00000
      3     -10.1657      2.00000
      4     -10.1657      2.00000
      5      -8.6416      2.00000
      6      -8.6416      2.00000
      7      -7.7921      2.00000
      8      -7.7921      2.00000
      9       2.5231      0.00000
     10       2.5231      0.00000
     11       3.3189      0.00000
     12       3.3189      0.00000

 k-point     4 :       0.0000    0.1250    0.0000
  band No.  band energies     occupation 
      1     -22.0023      2.00000
      2     -16.7815      2.00000
      3     -15.7606      2.00000
      4     -10.2765      2.00000
      5     -10.0436      2.00000
      6      -6.7960      2.00000
      7      -6.3612      2.00000
      8      -4.7600      2.00000
      9      -1.1666      0.00000
     10       0.8921      0.00000
     11       1.6824      0.00000
     12       2.0163      0.00000

 k-point     5 :       0.2500    0.1250    0.0000
  band No.  band energies     occupation 
      1     -21.6338      2.00000
      2     -18.7586      2.00000
      3     -13.2918      2.00000
      4      -9.8903      2.00000
      5      -9.6064      2.00000
      6      -7.9357      2.00000
      7      -7.0146      2.00000
      8      -6.3481      2.00000
      9       0.8891      0.00000
     10       1.3946      0.00000
     11       2.1904      0.00000
     12       2.5312      0.00000

 k-point     6 :       0.5000    0.1250    0.0000
  band No.  band energies     occupation 
      1     -20.5389      2.00000
      2     -20.5389      2.00000
      3     -10.2643      2.00000
      4     -10.2643      2.00000
      5      -8.7354      2.00000
      6      -8.7354      2.00000
      7      -8.3244      2.00000
      8      -8.3244      2.00000
      9       2.9002      0.00000
     10       2.9002      0.00000
     11       3.6989      0.00000
     12       3.6989      0.00000

 k-point     7 :       0.0000    0.2500    0.0000
  band No.  band energies     occupation 
      1     -21.1770      2.00000
      2     -16.0708      2.00000
      3     -15.2052      2.00000
      4     -12.4894      2.00000
      5      -9.0681      2.00000
      6      -8.9618      2.00000
      7      -7.8859      2.00000
      8      -3.7567      2.00000
      9      -1.7936      0.00000
     10       2.0207      0.00000
     11       2.8219      0.00000
     12       3.1729      0.00000

 k-point     8 :       0.2500    0.2500    0.0000
  band No.  band energies     occupation 
      1     -20.8122      2.00000
      2     -17.9869      2.00000
      3     -13.2790      2.00000
      4     -11.7005      2.00000
      5     -10.1725      2.00000
      6      -8.6443      2.00000
      7      -7.7832      2.00000
      8      -5.4819      2.00000
      9       0.0829      0.00000
     10       2.5205      0.00000
     11       3.3159      0.00000
     12       3.6873      0.00000

 k-point     9 :       0.5000    0.2500    0.0000
  band No.  band energies     occupation 
      1     -19.7310      2.00000
      2     -19.7310      2.00000
      3     -11.7625      2.00000
      4     -11.7625      2.00000
      5      -9.3988      2.00000
      6      -9.3988      2.00000
      7      -7.4042      2.00000
      8      -7.4042      2.00000
      9       2.4728      0.00000
     10       2.4728      0.00000
     11       4.0222      0.00000
     12       4.0222      0.00000

 k-point    10 :       0.0000    0.3750    0.0000
  band No.  band energies     occupation 
      1     -19.8231      2.00000
      2     -15.9040      2.00000
      3     -14.8939      2.00000
      4     -13.1352      2.00000
      5     -11.2484      2.00000
      6      -9.8181      2.00000
      7      -7.5031      2.00000
      8      -3.3678      2.00000
      9      -2.1195      0.00000
     10       2.7266      0.00000
     11       3.8953      0.00000
     12       4.7006      0.00000

 k-point    11 :       0.2500    0.3750    0.0000
  band No.  band energies     occupation 
      1     -19.4656      2.00000
      2     -16.8101      2.00000
      3     -15.1524      2.00000
      4     -12.6163      2.00000
      5     -11.3257      2.00000
      6      -8.8915      2.00000
      7      -7.1235      2.00000
      8      -4.5166      2.00000
      9      -1.1841      0.00000
     10       1.8479      0.00000
     11       4.3842      0.00000
     12       5.2337      0.00000

 k-point    12 :       0.5000    0.3750    0.0000
  band No.  band energies     occupation 
      1     -18.4165      2.00000
      2     -18.4165      2.00000
      3     -14.1848      2.00000
      4     -14.1848      2.00000
      5      -9.2501      2.00000
      6      -9.2501      2.00000
      7      -6.0468      2.00000
      8      -6.0468      2.00000
      9       0.2527      0.00000
     10       0.2527      0.00000
     11       5.1718      0.00000
     12       5.1718      0.00000

 k-point    13 :       0.0000    0.5000    0.0000
  band No.  band energies     occupation 
      1     -17.9930      2.00000
      2     -17.9930      2.00000
      3     -13.2701      2.00000
      4     -13.2701      2.00000
      5     -11.7038      2.00000
      6     -11.7038      2.00000
      7      -5.4889      2.00000
      8      -5.4889      2.00000
      9       0.0886      0.00000
     10       0.0886      0.00000
     11       6.4852      0.00000
     12       6.4852      0.00000

 k-point    14 :       0.2500    0.5000    0.0000
  band No.  band energies     occupation 
      1     -17.6653      2.00000
      2     -17.6653      2.00000
      3     -14.7597      2.00000
      4     -14.7597      2.00000
      5     -10.1701      2.00000
      6     -10.1701      2.00000
      7      -5.3144      2.00000
      8      -5.3144      2.00000
      9      -0.4989      0.00000
     10      -0.4989      0.00000
     11       6.2465      0.00000
     12       6.2465      0.00000

 k-point    15 :       0.5000    0.5000    0.0000
  band No.  band energies     occupation 
      1     -17.0323      2.00000
      2     -17.0323      2.00000
      3     -15.9876      2.00000
      4     -15.9876      2.00000
      5      -9.1529      2.00000
      6      -9.1529      2.00000
      7      -5.1094      2.00000
      8      -5.1094      2.00000
      9      -1.0567      0.00000
     10      -1.0567      0.00000
     11       4.6647      0.00000
     12       4.6647      0.00000


--------------------------------------------------------------------------------------------------------


 soft charge-density along one line, spin component           1
         0         1         2         3         4         5         6         7         8         9
 total charge-density along one line

 pseudopotential strength for first ion, spin component:           1
 10.217  13.587  -0.000   0.000  -0.000   0.000  -0.000   0.000
 13.587  18.068  -0.000   0.000  -0.000   0.000  -0.000   0.000
 -0.000  -0.000  -4.349  -0.000  -0.000   8.507   0.000   0.000
  0.000   0.000  -0.000  -4.342  -0.000   0.000   8.497   0.000
 -0.000  -0.000  -0.000  -0.000  -4.349   0.000   0.000   8.507
  0.000   0.000   8.507   0.000   0.000 -18.776  -0.000  -0.000
 -0.000  -0.000   0.000   8.497   0.000  -0.000 -18.767  -0.000
  0.000   0.000   0.000   0.000   8.507  -0.000  -0.000 -18.775
 total augmentation occupancy for first ion, spin component:           1
  8.286  -3.697   0.000  -0.000   0.002   0.000   0.000   0.000
 -3.697   1.705   0.000   0.000  -0.001   0.000   0.000  -0.000
  0.000   0.000   1.833   0.000  -0.000   0.173   0.000   0.000
 -0.000   0.000   0.000   1.211   0.000   0.000   0.078  -0.000
  0.002  -0.001  -0.000   0.000   1.835   0.000   0.000   0.173
  0.000   0.000   0.173   0.000   0.000   0.018   0.000  -0.000
  0.000   0.000   0.000   0.078   0.000   0.000   0.005   0.000
  0.000  -0.000   0.000  -0.000   0.173  -0.000   0.000   0.018


------------------------ aborting loop because EDIFF is reached ----------------------------------------


    CHARGE:  cpu time    0.0900: real time    0.0912
    FORLOC:  cpu time    0.0065: real time    0.0065
    FORNL :  cpu time    0.1233: real time    0.1235
    STRESS:  cpu time    0.4774: real time    0.4787
    FORCOR:  cpu time    0.1193: real time    0.1197
    FORHAR:  cpu time    0.0308: real time    0.0308
    MIXING:  cpu time    0.0036: real time    0.0036
    OFIELD:  cpu time    0.0000: real time    0.0000

  FORCE on cell =-STRESS in cart. coord.  units (eV):
  Direction    XX          YY          ZZ          XY          YZ          ZX
  --------------------------------------------------------------------------------------
  Alpha Z     6.24866     6.24866     6.24866
  Ewald    3132.56493  3132.23555 -3670.55045     0.00000     0.00000     0.00000
  Hartree  3065.55327  3065.48050 -3042.92566    -0.00000    -0.00000    -0.00000
  E(xc)     -59.44657   -59.44664   -61.67628    -0.00000    -0.00000    -0.00000
  Local   -6369.44034 -6369.08509  6507.86594     0.00000     0.00000     0.00000
  n-local   -14.24182   -14.21593   -12.97157     0.05444     0.00000     0.00000
  augment    -1.55049    -1.55124    -1.42918    -0.00000     0.00000    -0.00000
  Kinetic   240.29008   240.34617   274.86889    -3.17583    -0.00000    -0.00000
  Fock        0.00000     0.00000     0.00000     0.00000     0.00000     0.00000
  -------------------------------------------------------------------------------------
  Total      -0.02227     0.01197    -0.56964    -0.00000     0.00000     0.00000
  in kB      -0.16967     0.09116    -4.33897    -0.00000     0.00000     0.00000
  external pressure =       -1.47 kB  Pullay stress =        0.00 kB


 VOLUME and BASIS-vectors are now :
 -----------------------------------------------------------------------------
  energy-cutoff  :      400.00
  volume of cell :      210.34
      direct lattice vectors                 reciprocal lattice vectors
     4.266220405  0.000000000  0.000000000     0.234399516  0.000000000  0.000000000
     0.000000000  2.465188698  0.000000000     0.000000000  0.405648461  0.000000000
     0.000000000  0.000000000 20.000000000     0.000000000  0.000000000  0.050000000

  length of vectors
     4.266220405  2.465188698 20.000000000     0.234399516  0.405648461  0.050000000


 FORCES acting on ions
    electron-ion (+dipol)            ewald-force                    non-local-force                 convergence-correction
 -----------------------------------------------------------------------------------------------
   0.208E+00 -.566E-09 0.808E-06   -.207E+00 0.235E-07 -.151E-17   -.121E-02 -.173E-16 -.310E-24   0.126E-05 0.739E-14 0.130E-11
   -.208E+00 -.566E-09 -.808E-06   0.207E+00 0.235E-07 0.259E-17   0.121E-02 -.208E-16 0.103E-24   -.126E-05 0.845E-14 0.125E-11
   -.208E+00 -.184E-07 -.808E-06   0.207E+00 -.235E-07 -.476E-17   0.121E-02 0.139E-16 0.103E-24   -.126E-05 0.429E-14 0.127E-11
   0.208E+00 -.184E-07 0.808E-06   -.207E+00 -.235E-07 0.367E-17   -.121E-02 -.173E-16 -.207E-24   0.126E-05 0.329E-14 0.122E-11
 -----------------------------------------------------------------------------------------------
   -.380E-07 -.380E-07 -.409E-11   0.611E-15 -.768E-14 0.000E+00   0.000E+00 -.416E-16 -.310E-24   -.260E-13 0.234E-13 0.504E-11


 POSITION                                       TOTAL-FORCE (eV/Angst)
 -----------------------------------------------------------------------------------
      1.42213      0.00000     10.00000         0.000625      0.000000     -0.000000
      2.84409      0.00000     10.00000        -0.000625      0.000000      0.000000
      0.71098      1.23259     10.00000        -0.000625      0.000000      0.000000
      3.55524      1.23259     10.00000         0.000625      0.000000     -0.000000
 -----------------------------------------------------------------------------------
    total drift:                               -0.000000     -0.000000      0.000000


--------------------------------------------------------------------------------------------------------



  FREE ENERGIE OF THE ION-ELECTRON SYSTEM (eV)
  ---------------------------------------------------
  free  energy   TOTEN  =       -36.91310963 eV

  energy  without entropy=      -36.91310963  energy(sigma->0) =      -36.91310963

 d Force = 0.1911194E-05[ 0.216E-06, 0.361E-05]  d Energy = 0.1766158E-05 0.145E-06
 d Force =-0.6682823E-04[-0.713E-04,-0.623E-04]  d Ewald  =-0.8147710E-01 0.814E-01


--------------------------------------------------------------------------------------------------------


    POTLOK:  cpu time    0.1083: real time    0.1085


--------------------------------------------------------------------------------------------------------




--------------------------------------------------------------------------------------------------------


  
 reached required accuracy - stopping structural energy minimisation
     LOOP+:  cpu time    5.8976: real time    6.0861
    4ORBIT:  cpu time    0.0000: real time    0.0000

 total amount of memory used by VASP MPI-rank0    62874. kBytes
=======================================================================

   base      :      30000. kBytes
   nonl-proj :       3942. kBytes
   fftplans  :       8715. kBytes
   grid      :      14615. kBytes
   one-center:         12. kBytes
   wavefun   :       5590. kBytes

  
  
 General timing and accounting informations for this job:
 ========================================================
  
                  Total CPU time used (sec):       74.206
                            User time (sec):       72.509
                          System time (sec):        1.697
                         Elapsed time (sec):       77.435
  
                   Maximum memory used (kb):    81055744.
                   Average memory used (kb):           0.
  
                          Minor page faults:        19997
                          Major page faults:          825
                 Voluntary context switches:          148
