<?xml version="1.0" encoding="ISO-8859-1"?>
<modeling>
 <generator>
  <i name="program" type="string">vasp </i>
  <i name="version" type="string">5.4.4.18Apr17-6-g9f103f2a35  </i>
  <i name="subversion" type="string">(build May 21 2018 15:16:00) complex            parallel </i>
  <i name="platform" type="string">GUN_wannier90_optcell </i>
  <i name="date" type="string">2019 03 25 </i>
  <i name="time" type="string">10:03:06 </i>
 </generator>
 <incar>
  <i type="string" name="SYSTEM"> C</i>
  <i type="int" name="ISTART">     0</i>
  <i type="string" name="PREC">a</i>
  <i type="string" name="ALGO">     N ! Normal     algorithm</i>
  <i type="logical" name="LDIAG"> T  </i>
  <i type="int" name="NELM">  2000</i>
  <i type="int" name="NELMIN">     5</i>
  <i type="int" name="IBRION">     2</i>
  <i name="EDIFF">      0.00000100</i>
  <i name="EDIFFG">     -0.01000000</i>
  <i type="int" name="NSW">   500</i>
  <i type="int" name="ISIF">     3</i>
  <i type="int" name="NBLOCK">     1</i>
  <i type="int" name="KBLOCK">     5</i>
  <i name="ENCUT">    400.00000000</i>
  <i name="POTIM">      0.50000000</i>
  <i type="logical" name="LREAL"> F  </i>
  <i type="int" name="ISMEAR">     0</i>
  <i name="SIGMA">      0.10000000</i>
  <i type="int" name="NWRITE">     1</i>
  <i type="logical" name="LCORR"> T  </i>
  <i type="logical" name="LWAVE"> F  </i>
  <i type="logical" name="LCHARG"> F  </i>
  <v type="int" name="KPOINT_BSE">    -1     0     0     0</v>
  <i type="int" name="NELM">  2000</i>
 </incar>
 <structure name="primitive_cell" >
  <crystal>
   <varray name="basis" >
    <v>       2.13000011      -1.22975612       0.00000000 </v>
    <v>      -2.13000011      -1.22975612       0.00000000 </v>
    <v>       0.00000000       0.00000000     -20.00000000 </v>
   </varray>
   <i name="volume">    104.77522676 </i>
   <varray name="rec_basis" >
    <v>       0.23474177      -0.40658468       0.00000000 </v>
    <v>      -0.23474177      -0.40658468      -0.00000000 </v>
    <v>       0.00000000      -0.00000000      -0.05000000 </v>
   </varray>
  </crystal>
  <varray name="positions" >
   <v>       0.33333333      -0.33333333      -0.50000000 </v>
   <v>      -0.33333333       0.33333333      -0.50000000 </v>
  </varray>
 </structure>
 <varray name="primitive_index" >
  <v type="int" >        1 </v>
  <v type="int" >        3 </v>
 </varray>
 <kpoints>
  <generation param="Gamma">
   <v type="int" name="divisions">       4        8        1 </v>
   <v name="usershift">      0.00000000       0.00000000       0.00000000 </v>
   <v name="genvec1">      0.25000000       0.00000000       0.00000000 </v>
   <v name="genvec2">      0.00000000       0.12500000       0.00000000 </v>
   <v name="genvec3">      0.00000000       0.00000000       1.00000000 </v>
   <v name="shift">      0.00000000       0.00000000       0.00000000 </v>
  </generation>
  <varray name="kpointlist" >
   <v>       0.00000000       0.00000000       0.00000000 </v>
   <v>       0.25000000       0.00000000       0.00000000 </v>
   <v>       0.50000000       0.00000000       0.00000000 </v>
   <v>       0.00000000       0.12500000       0.00000000 </v>
   <v>       0.25000000       0.12500000       0.00000000 </v>
   <v>       0.50000000       0.12500000       0.00000000 </v>
   <v>       0.00000000       0.25000000       0.00000000 </v>
   <v>       0.25000000       0.25000000       0.00000000 </v>
   <v>       0.50000000       0.25000000       0.00000000 </v>
   <v>       0.00000000       0.37500000       0.00000000 </v>
   <v>       0.25000000       0.37500000       0.00000000 </v>
   <v>       0.50000000       0.37500000       0.00000000 </v>
   <v>       0.00000000       0.50000000       0.00000000 </v>
   <v>       0.25000000       0.50000000       0.00000000 </v>
   <v>       0.50000000       0.50000000       0.00000000 </v>
  </varray>
  <varray name="weights" >
   <v>       0.03125000 </v>
   <v>       0.06250000 </v>
   <v>       0.03125000 </v>
   <v>       0.06250000 </v>
   <v>       0.12500000 </v>
   <v>       0.06250000 </v>
   <v>       0.06250000 </v>
   <v>       0.12500000 </v>
   <v>       0.06250000 </v>
   <v>       0.06250000 </v>
   <v>       0.12500000 </v>
   <v>       0.06250000 </v>
   <v>       0.03125000 </v>
   <v>       0.06250000 </v>
   <v>       0.03125000 </v>
  </varray>
 </kpoints>
 <parameters>
  <separator name="general" >
   <i type="string" name="SYSTEM">C</i>
   <i type="logical" name="LCOMPAT"> F  </i>
  </separator>
  <separator name="electronic" >
   <i type="string" name="PREC">a</i>
   <i name="ENMAX">    400.00000000</i>
   <i name="ENAUG">    644.87300000</i>
   <i name="EDIFF">      0.00000100</i>
   <i type="int" name="IALGO">    38</i>
   <i type="int" name="IWAVPR">    11</i>
   <i type="int" name="NBANDS">    12</i>
   <i name="NELECT">     16.00000000</i>
   <i type="int" name="TURBO">     0</i>
   <i type="int" name="IRESTART">     0</i>
   <i type="int" name="NREBOOT">     0</i>
   <i type="int" name="NMIN">     0</i>
   <i name="EREF">      0.00000000</i>
   <separator name="electronic smearing" >
    <i type="int" name="ISMEAR">     0</i>
    <i name="SIGMA">      0.10000000</i>
    <i name="KSPACING">      0.50000000</i>
    <i type="logical" name="KGAMMA"> T  </i>
   </separator>
   <separator name="electronic projectors" >
    <i type="logical" name="LREAL"> F  </i>
    <v name="ROPT">      0.00000000</v>
    <i type="int" name="LMAXPAW">  -100</i>
    <i type="int" name="LMAXMIX">     2</i>
    <i type="logical" name="NLSPLINE"> F  </i>
   </separator>
   <separator name="electronic startup" >
    <i type="int" name="ISTART">     0</i>
    <i type="int" name="ICHARG">     2</i>
    <i type="int" name="INIWAV">     1</i>
   </separator>
   <separator name="electronic spin" >
    <i type="int" name="ISPIN">     1</i>
    <i type="logical" name="LNONCOLLINEAR"> F  </i>
    <v name="MAGMOM">      1.00000000      1.00000000      1.00000000      1.00000000</v>
    <i name="NUPDOWN">     -1.00000000</i>
    <i type="logical" name="LSORBIT"> F  </i>
    <v name="SAXIS">      0.00000000      0.00000000      1.00000000</v>
    <i type="logical" name="LSPIRAL"> F  </i>
    <v name="QSPIRAL">      0.00000000      0.00000000      0.00000000</v>
    <i type="logical" name="LZEROZ"> F  </i>
   </separator>
   <separator name="electronic exchange-correlation" >
    <i type="logical" name="LASPH"> F  </i>
    <i type="logical" name="LMETAGGA"> F  </i>
   </separator>
   <separator name="electronic convergence" >
    <i type="int" name="NELM">  2000</i>
    <i type="int" name="NELMDL">    -5</i>
    <i type="int" name="NELMIN">     5</i>
    <i name="ENINI">    400.00000000</i>
    <separator name="electronic convergence detail" >
     <i type="logical" name="LDIAG"> T  </i>
     <i type="logical" name="LSUBROT"> F  </i>
     <i name="WEIMIN">      0.00100000</i>
     <i name="EBREAK">      0.00000002</i>
     <i name="DEPER">      0.30000000</i>
     <i type="int" name="NRMM">     4</i>
     <i name="TIME">      0.40000000</i>
    </separator>
   </separator>
   <separator name="electronic mixer" >
    <i name="AMIX">      0.40000000</i>
    <i name="BMIX">      1.00000000</i>
    <i name="AMIN">      0.10000000</i>
    <i name="AMIX_MAG">      1.60000000</i>
    <i name="BMIX_MAG">      1.00000000</i>
    <separator name="electronic mixer details" >
     <i type="int" name="IMIX">     4</i>
     <i type="logical" name="MIXFIRST"> F  </i>
     <i type="int" name="MAXMIX">   -45</i>
     <i name="WC">    100.00000000</i>
     <i type="int" name="INIMIX">     1</i>
     <i type="int" name="MIXPRE">     1</i>
     <i type="int" name="MREMOVE">     5</i>
    </separator>
   </separator>
   <separator name="electronic dipolcorrection" >
    <i type="logical" name="LDIPOL"> F  </i>
    <i type="logical" name="LMONO"> F  </i>
    <i type="int" name="IDIPOL">     0</i>
    <i name="EPSILON">      1.00000000</i>
    <v name="DIPOL">   -100.00000000   -100.00000000   -100.00000000</v>
    <i name="EFIELD">      0.00000000</i>
   </separator>
  </separator>
  <separator name="grids" >
   <i type="int" name="NGX">    28</i>
   <i type="int" name="NGY">    16</i>
   <i type="int" name="NGZ">   140</i>
   <i type="int" name="NGXF">    56</i>
   <i type="int" name="NGYF">    32</i>
   <i type="int" name="NGZF">   280</i>
   <i type="logical" name="ADDGRID"> F  </i>
  </separator>
  <separator name="ionic" >
   <i type="int" name="NSW">   500</i>
   <i type="int" name="IBRION">     2</i>
   <i type="int" name="MDALGO">     0</i>
   <i type="int" name="ISIF">     3</i>
   <i name="PSTRESS">      0.00000000</i>
   <i name="EDIFFG">     -0.01000000</i>
   <i type="int" name="NFREE">     1</i>
   <i name="POTIM">      0.50000000</i>
   <i name="SMASS">     -3.00000000</i>
   <i name="SCALEE">      1.00000000</i>
  </separator>
  <separator name="ionic md" >
   <i name="TEBEG">      0.00010000</i>
   <i name="TEEND">      0.00010000</i>
   <i type="int" name="NBLOCK">     1</i>
   <i type="int" name="KBLOCK">     5</i>
   <i type="int" name="NPACO">   256</i>
   <i name="APACO">     16.00000000</i>
  </separator>
  <separator name="symmetry" >
   <i type="int" name="ISYM">     2</i>
   <i name="SYMPREC">      0.00001000</i>
  </separator>
  <separator name="dos" >
   <i type="int" name="LORBIT">     0</i>
   <v name="RWIGS">     -1.00000000</v>
   <i type="int" name="NEDOS">   301</i>
   <i name="EMIN">     10.00000000</i>
   <i name="EMAX">    -10.00000000</i>
   <i name="EFERMI">      0.00000000</i>
  </separator>
  <separator name="writing" >
   <i type="int" name="NWRITE">     1</i>
   <i type="logical" name="LWAVE"> F  </i>
   <i type="logical" name="LDOWNSAMPLE"> F  </i>
   <i type="logical" name="LCHARG"> F  </i>
   <i type="logical" name="LPARD"> F  </i>
   <i type="logical" name="LVTOT"> F  </i>
   <i type="logical" name="LVHAR"> F  </i>
   <i type="logical" name="LELF"> F  </i>
   <i type="logical" name="LOPTICS"> F  </i>
   <v name="STM">      0.00000000      0.00000000      0.00000000      0.00000000      0.00000000      0.00000000      0.00000000</v>
  </separator>
  <separator name="performance" >
   <i type="int" name="NPAR">     2</i>
   <i type="int" name="NSIM">     4</i>
   <i type="int" name="NBLK">    -1</i>
   <i type="logical" name="LPLANE"> T  </i>
   <i type="logical" name="LSCALAPACK"> T  </i>
   <i type="logical" name="LSCAAWARE"> F  </i>
   <i type="logical" name="LSCALU"> F  </i>
   <i type="logical" name="LASYNC"> F  </i>
   <i type="logical" name="LORBITALREAL"> F  </i>
  </separator>
  <separator name="miscellaneous" >
   <i type="int" name="IDIOT">     3</i>
   <i type="int" name="ISPECIAL">     0</i>
   <i type="logical" name="LMUSIC"> F  </i>
   <v name="POMASS">     12.01100000</v>
   <v name="DARWINR">      0.00000000</v>
   <v name="DARWINV">      1.00000000</v>
   <i type="logical" name="LCORR"> T  </i>
  </separator>
  <i type="logical" name="GGA_COMPAT"> T  </i>
  <i type="logical" name="LBERRY"> F  </i>
  <i type="int" name="ICORELEVEL">     0</i>
  <i type="logical" name="LDAU"> F  </i>
  <i type="int" name="I_CONSTRAINED_M">     0</i>
  <separator name="electronic exchange-correlation" >
   <i type="string" name="GGA">--</i>
   <i type="int" name="VOSKOWN">     0</i>
   <i type="logical" name="LHFCALC"> F  </i>
   <i type="string" name="PRECFOCK"></i>
   <i type="logical" name="LSYMGRAD"> F  </i>
   <i type="logical" name="LHFONE"> F  </i>
   <i type="logical" name="LRHFCALC"> F  </i>
   <i type="logical" name="LTHOMAS"> F  </i>
   <i type="logical" name="LMODELHF"> F  </i>
   <i name="ENCUT4O">     -1.00000000</i>
   <i type="int" name="EXXOEP">     0</i>
   <i type="int" name="FOURORBIT">     0</i>
   <i name="AEXX">      0.00000000</i>
   <i name="HFALPHA">      0.00000000</i>
   <i name="MCALPHA">      0.00000000</i>
   <i name="ALDAX">      1.00000000</i>
   <i name="AGGAX">      1.00000000</i>
   <i name="ALDAC">      1.00000000</i>
   <i name="AGGAC">      1.00000000</i>
   <i type="int" name="NKREDX">     1</i>
   <i type="int" name="NKREDY">     1</i>
   <i type="int" name="NKREDZ">     1</i>
   <i type="logical" name="SHIFTRED"> F  </i>
   <i type="logical" name="ODDONLY"> F  </i>
   <i type="logical" name="EVENONLY"> F  </i>
   <i type="int" name="LMAXFOCK">     0</i>
   <i type="int" name="NMAXFOCKAE">     0</i>
   <i type="logical" name="LFOCKAEDFT"> F  </i>
   <i name="HFSCREEN">      0.00000000</i>
   <i name="HFSCREENC">      0.00000000</i>
   <i type="int" name="NBANDSGWLOW">     0</i>
  </separator>
  <separator name="vdW DFT" >
   <i type="logical" name="LUSE_VDW"> F  </i>
   <i name="Zab_VDW">     -0.84910000</i>
   <i name="PARAM1">      0.12340000</i>
   <i name="PARAM2">      1.00000000</i>
   <i name="PARAM3">      0.00000000</i>
  </separator>
  <separator name="model GW" >
   <i type="int" name="MODEL_GW">     0</i>
   <i name="MODEL_EPS0">     31.43256804</i>
   <i name="MODEL_ALPHA">      1.00000000</i>
  </separator>
  <separator name="linear response parameters" >
   <i type="logical" name="LEPSILON"> F  </i>
   <i type="logical" name="LRPA"> F  </i>
   <i type="logical" name="LNABLA"> F  </i>
   <i type="logical" name="LVEL"> F  </i>
   <i type="int" name="KINTER">     0</i>
   <i name="CSHIFT">      0.10000000</i>
   <i name="OMEGAMAX">     -1.00000000</i>
   <i name="DEG_THRESHOLD">      0.00200000</i>
   <i name="RTIME">     -0.10000000</i>
   <i name="WPLASMAI">      0.00000000</i>
   <v name="DFIELD">      0.00000000      0.00000000      0.00000000</v>
   <v name="WPLASMA">      0.00000000      0.00000000      0.00000000      0.00000000      0.00000000      0.00000000      0.00000000      0.00000000      0.00000000</v>
  </separator>
  <separator name="orbital magnetization" >
   <i type="logical" name="NUCIND"> F  </i>
   <v name="MAGPOS">      0.00000000      0.00000000      0.00000000</v>
   <i type="logical" name="LNICSALL"> T  </i>
   <i type="logical" name="ORBITALMAG"> F  </i>
   <i type="logical" name="LMAGBLOCH"> F  </i>
   <i type="logical" name="LCHIMAG"> F  </i>
   <i type="logical" name="LGAUGE"> T  </i>
   <i type="int" name="MAGATOM">     0</i>
   <v name="MAGDIPOL">      0.00000000      0.00000000      0.00000000</v>
   <v name="AVECCONST">      0.00000000      0.00000000      0.00000000</v>
  </separator>
  <separator name="response functions" >
   <i type="logical" name="LADDER"> F  </i>
   <i type="logical" name="LRPAFORCE"> F  </i>
   <i type="logical" name="LFXC"> F  </i>
   <i type="logical" name="LHARTREE"> T  </i>
   <i type="int" name="IBSE">     0</i>
   <v type="int" name="KPOINT">    -1     0     0     0</v>
   <i type="logical" name="LTCTE"> F  </i>
   <i type="logical" name="LTETE"> F  </i>
   <i type="logical" name="LTRIPLET"> F  </i>
   <i type="logical" name="LFXCEPS"> F  </i>
   <i type="logical" name="LFXHEG"> F  </i>
   <i type="int" name="NATURALO">     2</i>
   <i type="logical" name="L2ORDER"> F  </i>
   <i type="logical" name="LMP2LT"> F  </i>
   <i type="logical" name="LUSEW"> F  </i>
   <i name="ENCUTGW">     -2.00000000</i>
   <i name="ENCUTGWSOFT">     -2.00000000</i>
   <i name="ENCUTLF">     -1.00000000</i>
   <i type="int" name="LMAXMP2">    -1</i>
   <i name="SCISSOR">      0.00000000</i>
   <i type="int" name="NOMEGA">     0</i>
   <i type="int" name="NOMEGAR">     0</i>
   <i type="int" name="NBANDSGW">    -1</i>
   <i type="int" name="NBANDSO">    -1</i>
   <i type="int" name="NBANDSV">    -1</i>
   <i type="int" name="NELM">  2000</i>
   <i type="int" name="NELMHF">     1</i>
   <i type="int" name="DIM">     3</i>
   <i type="int" name="ANTIRES">     0</i>
   <i name="OMEGAMAX">    -30.00000000</i>
   <i name="OMEGAMIN">    -30.00000000</i>
   <i name="OMEGATL">   -200.00000000</i>
   <i type="int" name="OMEGAGRID">   140</i>
   <i name="CSHIFT">     -0.10000000</i>
   <i type="logical" name="SELFENERGY"> F  </i>
   <i type="logical" name="LSPECTRAL"> F  </i>
   <i type="logical" name="LSPECTRALGW"> F  </i>
   <i type="logical" name="LSINGLES"> F  </i>
   <i type="logical" name="LFERMIGW"> F  </i>
   <i type="logical" name="ODDONLYGW"> F  </i>
   <i type="logical" name="EVENONLYGW"> F  </i>
   <i type="int" name="NKREDLFX">     1</i>
   <i type="int" name="NKREDLFY">     1</i>
   <i type="int" name="NKREDLFZ">     1</i>
   <i type="int" name="MAXMEM">  2800</i>
   <i type="int" name="TELESCOPE">     0</i>
   <i type="int" name="TAUPAR">     1</i>
   <i type="int" name="OMEGAPAR">    -1</i>
   <i name="LAMBDA">      1.00000000</i>
  </separator>
  <separator name="External order field" >
   <i name="OFIELD_KAPPA">      0.00000000</i>
   <v name="OFIELD_K">      0.00000000      0.00000000      0.00000000</v>
   <i name="OFIELD_Q6_NEAR">      0.00000000</i>
   <i name="OFIELD_Q6_FAR">      0.00000000</i>
   <i name="OFIELD_A">      0.00000000</i>
  </separator>
 </parameters>
 <atominfo>
  <atoms>       4 </atoms>
  <types>       1 </types>
  <array name="atoms" >
   <dimension dim="1">ion</dimension>
   <field type="string">element</field>
   <field type="int">atomtype</field>
   <set>
    <rc><c>C </c><c>   1</c></rc>
    <rc><c>C </c><c>   1</c></rc>
    <rc><c>C </c><c>   1</c></rc>
    <rc><c>C </c><c>   1</c></rc>
   </set>
  </array>
  <array name="atomtypes" >
   <dimension dim="1">type</dimension>
   <field type="int">atomspertype</field>
   <field type="string">element</field>
   <field>mass</field>
   <field>valence</field>
   <field type="string">pseudopotential</field>
   <set>
    <rc><c>   4</c><c>C </c><c>     12.01100000</c><c>      4.00000000</c><c>  PAW_PBE C 08Apr2002                   </c></rc>
   </set>
  </array>
 </atominfo>
 <structure name="initialpos" >
  <crystal>
   <varray name="basis" >
    <v>       4.26000023       0.00000000       0.00000000 </v>
    <v>       0.00000000       2.45951223       0.00000000 </v>
    <v>       0.00000000       0.00000000      20.00000000 </v>
   </varray>
   <i name="volume">    209.55045358 </i>
   <varray name="rec_basis" >
    <v>       0.23474177       0.00000000       0.00000000 </v>
    <v>       0.00000000       0.40658468       0.00000000 </v>
    <v>       0.00000000       0.00000000       0.05000000 </v>
   </varray>
  </crystal>
  <varray name="positions" >
   <v>       0.33333333       0.00000000       0.50000000 </v>
   <v>       0.66666667       0.00000000       0.50000000 </v>
   <v>       0.16666667       0.50000000       0.50000000 </v>
   <v>       0.83333333       0.50000000       0.50000000 </v>
  </varray>
 </structure>
 <calculation>
  <scstep>
   <time name="dav">    1.63    1.85</time>
   <time name="total">    1.81    2.04</time>
   <energy>
    <i name="alphaZ">      6.27222434 </i>
    <i name="ewald">   2606.06587534 </i>
    <i name="hartreedc">  -3030.42622588 </i>
    <i name="XCdc">     52.79061582 </i>
    <i name="pawpsdc">    434.08818552 </i>
    <i name="pawaedc">   -436.36580876 </i>
    <i name="eentropy">     -0.00584029 </i>
    <i name="bandstr">   -147.01525194 </i>
    <i name="atom">    588.50889549 </i>
    <i name="e_fr_energy">     73.91266965 </i>
    <i name="e_wo_entrp">     73.91850994 </i>
    <i name="e_0_energy">     73.91558979 </i>
   </energy>
  </scstep>
  <scstep>
   <time name="dav">    1.61    1.69</time>
   <time name="total">    1.61    1.69</time>
   <energy>
    <i name="e_fr_energy">    -27.85769523 </i>
    <i name="e_wo_entrp">    -27.85769523 </i>
    <i name="e_0_energy">    -27.85769523 </i>
   </energy>
  </scstep>
  <scstep>
   <time name="dav">    1.03    1.03</time>
   <time name="total">    1.03    1.03</time>
   <energy>
    <i name="e_fr_energy">    -39.19831346 </i>
    <i name="e_wo_entrp">    -39.19831346 </i>
    <i name="e_0_energy">    -39.19831346 </i>
   </energy>
  </scstep>
  <scstep>
   <time name="dav">    1.03    1.03</time>
   <time name="total">    1.03    1.04</time>
   <energy>
    <i name="e_fr_energy">    -39.49314112 </i>
    <i name="e_wo_entrp">    -39.49314112 </i>
    <i name="e_0_energy">    -39.49314112 </i>
   </energy>
  </scstep>
  <scstep>
   <time name="dav">    1.05    1.06</time>
   <time name="total">    1.16    1.18</time>
   <energy>
    <i name="e_fr_energy">    -39.50066442 </i>
    <i name="e_wo_entrp">    -39.50066442 </i>
    <i name="e_0_energy">    -39.50066442 </i>
   </energy>
  </scstep>
  <scstep>
   <time name="dav">    1.24    1.41</time>
   <time name="total">    1.45    1.64</time>
   <energy>
    <i name="e_fr_energy">    -37.65065101 </i>
    <i name="e_wo_entrp">    -37.65065101 </i>
    <i name="e_0_energy">    -37.65065101 </i>
   </energy>
  </scstep>
  <scstep>
   <time name="dav">    1.05    1.08</time>
   <time name="total">    1.26    1.31</time>
   <energy>
    <i name="e_fr_energy">    -36.92779117 </i>
    <i name="e_wo_entrp">    -36.92779117 </i>
    <i name="e_0_energy">    -36.92779117 </i>
   </energy>
  </scstep>
  <scstep>
   <time name="dav">    1.06    1.08</time>
   <time name="total">    1.28    1.30</time>
   <energy>
    <i name="e_fr_energy">    -36.91462853 </i>
    <i name="e_wo_entrp">    -36.91462853 </i>
    <i name="e_0_energy">    -36.91462853 </i>
   </energy>
  </scstep>
  <scstep>
   <time name="dav">    1.09    1.11</time>
   <time name="total">    1.29    1.32</time>
   <energy>
    <i name="e_fr_energy">    -36.91261163 </i>
    <i name="e_wo_entrp">    -36.91261163 </i>
    <i name="e_0_energy">    -36.91261163 </i>
   </energy>
  </scstep>
  <scstep>
   <time name="dav">    1.07    1.10</time>
   <time name="total">    1.28    1.32</time>
   <energy>
    <i name="e_fr_energy">    -36.90789725 </i>
    <i name="e_wo_entrp">    -36.90789725 </i>
    <i name="e_0_energy">    -36.90789725 </i>
   </energy>
  </scstep>
  <scstep>
   <time name="dav">    1.01    1.02</time>
   <time name="total">    1.20    1.23</time>
   <energy>
    <i name="e_fr_energy">    -36.90918467 </i>
    <i name="e_wo_entrp">    -36.90918467 </i>
    <i name="e_0_energy">    -36.90918467 </i>
   </energy>
  </scstep>
  <scstep>
   <time name="dav">    0.94    0.94</time>
   <time name="total">    1.13    1.14</time>
   <energy>
    <i name="e_fr_energy">    -36.91009454 </i>
    <i name="e_wo_entrp">    -36.91009454 </i>
    <i name="e_0_energy">    -36.91009454 </i>
   </energy>
  </scstep>
  <scstep>
   <time name="dav">    0.97    0.98</time>
   <time name="total">    1.18    1.20</time>
   <energy>
    <i name="e_fr_energy">    -36.91107220 </i>
    <i name="e_wo_entrp">    -36.91107220 </i>
    <i name="e_0_energy">    -36.91107220 </i>
   </energy>
  </scstep>
  <scstep>
   <time name="dav">    1.41    1.53</time>
   <time name="total">    1.63    1.77</time>
   <energy>
    <i name="e_fr_energy">    -36.91187261 </i>
    <i name="e_wo_entrp">    -36.91187261 </i>
    <i name="e_0_energy">    -36.91187261 </i>
   </energy>
  </scstep>
  <scstep>
   <time name="dav">    0.98    0.99</time>
   <time name="total">    1.19    1.21</time>
   <energy>
    <i name="e_fr_energy">    -36.91202040 </i>
    <i name="e_wo_entrp">    -36.91202040 </i>
    <i name="e_0_energy">    -36.91202040 </i>
   </energy>
  </scstep>
  <scstep>
   <time name="dav">    1.11    1.17</time>
   <time name="total">    1.33    1.41</time>
   <energy>
    <i name="e_fr_energy">    -36.91204661 </i>
    <i name="e_wo_entrp">    -36.91204661 </i>
    <i name="e_0_energy">    -36.91204661 </i>
   </energy>
  </scstep>
  <scstep>
   <time name="dav">    0.78    0.80</time>
   <time name="total">    0.99    1.04</time>
   <energy>
    <i name="e_fr_energy">    -36.91205807 </i>
    <i name="e_wo_entrp">    -36.91205807 </i>
    <i name="e_0_energy">    -36.91205807 </i>
   </energy>
  </scstep>
  <scstep>
   <time name="dav">    0.81    0.83</time>
   <time name="total">    1.02    1.05</time>
   <energy>
    <i name="e_fr_energy">    -36.91206189 </i>
    <i name="e_wo_entrp">    -36.91206189 </i>
    <i name="e_0_energy">    -36.91206189 </i>
   </energy>
  </scstep>
  <scstep>
   <time name="dav">    0.79    0.82</time>
   <time name="total">    1.01    1.04</time>
   <energy>
    <i name="e_fr_energy">    -36.91206722 </i>
    <i name="e_wo_entrp">    -36.91206722 </i>
    <i name="e_0_energy">    -36.91206722 </i>
   </energy>
  </scstep>
  <scstep>
   <time name="dav">    0.81    0.85</time>
   <time name="total">    1.02    1.06</time>
   <energy>
    <i name="e_fr_energy">    -36.91206851 </i>
    <i name="e_wo_entrp">    -36.91206851 </i>
    <i name="e_0_energy">    -36.91206851 </i>
   </energy>
  </scstep>
  <scstep>
   <time name="dav">    0.79    0.81</time>
   <time name="total">    0.91    0.92</time>
   <energy>
    <i name="alphaZ">      6.27222434 </i>
    <i name="ewald">   2606.06587534 </i>
    <i name="hartreedc">  -3099.97583351 </i>
    <i name="XCdc">     55.18224208 </i>
    <i name="pawpsdc">   1734.41760575 </i>
    <i name="pawaedc">  -1737.12988094 </i>
    <i name="eentropy">     -0.00000000 </i>
    <i name="bandstr">   -190.25319747 </i>
    <i name="atom">    588.50889549 </i>
    <i name="e_fr_energy">    -36.91206893 </i>
    <i name="e_wo_entrp">    -36.91206893 </i>
    <i name="e_0_energy">    -36.91206893 </i>
   </energy>
  </scstep>
  <structure>
   <crystal>
    <varray name="basis" >
     <v>       4.26000023       0.00000000       0.00000000 </v>
     <v>       0.00000000       2.45951223       0.00000000 </v>
     <v>       0.00000000       0.00000000      20.00000000 </v>
    </varray>
    <i name="volume">    209.55045358 </i>
    <varray name="rec_basis" >
     <v>       0.23474177       0.00000000       0.00000000 </v>
     <v>       0.00000000       0.40658468       0.00000000 </v>
     <v>       0.00000000       0.00000000       0.05000000 </v>
    </varray>
   </crystal>
   <varray name="positions" >
    <v>       0.33333333       0.00000000       0.50000000 </v>
    <v>       0.66666667       0.00000000       0.50000000 </v>
    <v>       0.16666667       0.50000000       0.50000000 </v>
    <v>       0.83333333       0.50000000       0.50000000 </v>
   </varray>
  </structure>
  <varray name="forces" >
   <v>       0.02054399       0.00000000       0.00000000 </v>
   <v>      -0.02054399       0.00000000       0.00000000 </v>
   <v>      -0.02054399       0.00000000      -0.00000000 </v>
   <v>       0.02054399       0.00000000       0.00000000 </v>
  </varray>
  <varray name="stress" >
   <v>       3.19568289       0.00000000       0.00000000 </v>
   <v>       0.00000000       4.93107562       0.00000000 </v>
   <v>       0.00000000       0.00000000      -4.29835209 </v>
  </varray>
  <energy>
   <i name="e_fr_energy">    -36.91206893 </i>
   <i name="e_wo_entrp">    -36.91206893 </i>
   <i name="e_0_energy">     -0.00000000 </i>
  </energy>
  <time name="totalsc">   27.11   28.24</time>
 </calculation>
 <calculation>
  <scstep>
   <time name="dav">    1.01    1.03</time>
   <time name="total">    1.23    1.26</time>
   <energy>
    <i name="alphaZ">      6.19259636 </i>
    <i name="ewald">   2566.16155456 </i>
    <i name="hartreedc">  -3060.90641798 </i>
    <i name="XCdc">     54.95729061 </i>
    <i name="pawpsdc">   1734.41290739 </i>
    <i name="pawaedc">  -1737.12517801 </i>
    <i name="eentropy">     -0.00000000 </i>
    <i name="bandstr">   -189.11039818 </i>
    <i name="atom">    588.50889549 </i>
    <i name="e_fr_energy">    -36.90874975 </i>
    <i name="e_wo_entrp">    -36.90874975 </i>
    <i name="e_0_energy">    -36.90874975 </i>
   </energy>
  </scstep>
  <scstep>
   <time name="dav">    1.01    1.05</time>
   <time name="total">    1.22    1.26</time>
   <energy>
    <i name="e_fr_energy">    -36.90761529 </i>
    <i name="e_wo_entrp">    -36.90761529 </i>
    <i name="e_0_energy">    -36.90761529 </i>
   </energy>
  </scstep>
  <scstep>
   <time name="dav">    1.10    1.17</time>
   <time name="total">    1.31    1.38</time>
   <energy>
    <i name="e_fr_energy">    -36.90678789 </i>
    <i name="e_wo_entrp">    -36.90678789 </i>
    <i name="e_0_energy">    -36.90678789 </i>
   </energy>
  </scstep>
  <scstep>
   <time name="dav">    1.13    1.16</time>
   <time name="total">    1.33    1.37</time>
   <energy>
    <i name="e_fr_energy">    -36.90680002 </i>
    <i name="e_wo_entrp">    -36.90680002 </i>
    <i name="e_0_energy">    -36.90680002 </i>
   </energy>
  </scstep>
  <scstep>
   <time name="dav">    1.15    1.23</time>
   <time name="total">    1.36    1.46</time>
   <energy>
    <i name="e_fr_energy">    -36.90681443 </i>
    <i name="e_wo_entrp">    -36.90681443 </i>
    <i name="e_0_energy">    -36.90681443 </i>
   </energy>
  </scstep>
  <scstep>
   <time name="dav">    1.00    1.02</time>
   <time name="total">    1.20    1.22</time>
   <energy>
    <i name="e_fr_energy">    -36.90682686 </i>
    <i name="e_wo_entrp">    -36.90682686 </i>
    <i name="e_0_energy">    -36.90682686 </i>
   </energy>
  </scstep>
  <scstep>
   <time name="dav">    1.02    1.04</time>
   <time name="total">    1.24    1.28</time>
   <energy>
    <i name="e_fr_energy">    -36.90685321 </i>
    <i name="e_wo_entrp">    -36.90685321 </i>
    <i name="e_0_energy">    -36.90685321 </i>
   </energy>
  </scstep>
  <scstep>
   <time name="dav">    0.92    0.99</time>
   <time name="total">    1.15    1.24</time>
   <energy>
    <i name="e_fr_energy">    -36.90685847 </i>
    <i name="e_wo_entrp">    -36.90685847 </i>
    <i name="e_0_energy">    -36.90685847 </i>
   </energy>
  </scstep>
  <scstep>
   <time name="dav">    1.08    1.12</time>
   <time name="total">    1.29    1.34</time>
   <energy>
    <i name="e_fr_energy">    -36.90686449 </i>
    <i name="e_wo_entrp">    -36.90686449 </i>
    <i name="e_0_energy">    -36.90686449 </i>
   </energy>
  </scstep>
  <scstep>
   <time name="dav">    0.85    0.89</time>
   <time name="total">    1.08    1.13</time>
   <energy>
    <i name="e_fr_energy">    -36.90686593 </i>
    <i name="e_wo_entrp">    -36.90686593 </i>
    <i name="e_0_energy">    -36.90686593 </i>
   </energy>
  </scstep>
  <scstep>
   <time name="dav">    0.88    0.92</time>
   <time name="total">    1.02    1.08</time>
   <energy>
    <i name="alphaZ">      6.19259636 </i>
    <i name="ewald">   2566.16155456 </i>
    <i name="hartreedc">  -3059.89358300 </i>
    <i name="XCdc">     54.95094112 </i>
    <i name="pawpsdc">   1685.26328435 </i>
    <i name="pawaedc">  -1687.95297049 </i>
    <i name="eentropy">     -0.00000000 </i>
    <i name="bandstr">   -190.13758464 </i>
    <i name="atom">    588.50889549 </i>
    <i name="e_fr_energy">    -36.90686626 </i>
    <i name="e_wo_entrp">    -36.90686626 </i>
    <i name="e_0_energy">    -36.90686626 </i>
   </energy>
  </scstep>
  <structure>
   <crystal>
    <varray name="basis" >
     <v>       4.28147470       0.00000000       0.00000000 </v>
     <v>       0.00000000       2.47864333       0.00000000 </v>
     <v>       0.00000000       0.00000000      20.00000000 </v>
    </varray>
    <i name="volume">    212.24497434 </i>
    <varray name="rec_basis" >
     <v>       0.23356438       0.00000000       0.00000000 </v>
     <v>       0.00000000       0.40344651       0.00000000 </v>
     <v>       0.00000000       0.00000000       0.05000000 </v>
    </varray>
   </crystal>
   <varray name="positions" >
    <v>       0.33356599       0.00000000       0.50000000 </v>
    <v>       0.66643401       0.00000000       0.50000000 </v>
    <v>       0.16643401       0.50000000       0.50000000 </v>
    <v>       0.83356599       0.50000000       0.50000000 </v>
   </varray>
  </structure>
  <varray name="forces" >
   <v>      -0.13202482       0.00000000      -0.00000000 </v>
   <v>       0.13202482       0.00000000       0.00000000 </v>
   <v>       0.13202482       0.00000000       0.00000000 </v>
   <v>      -0.13202482       0.00000000      -0.00000000 </v>
  </varray>
  <varray name="stress" >
   <v>      -7.78158393       0.00000000       0.00000000 </v>
   <v>      -0.00000000     -11.40186504       0.00000000 </v>
   <v>       0.00000000       0.00000000      -4.44792053 </v>
  </varray>
  <energy>
   <i name="e_fr_energy">    -36.90686626 </i>
   <i name="e_wo_entrp">    -36.90686626 </i>
   <i name="e_0_energy">     -0.00000000 </i>
  </energy>
  <time name="totalsc">   14.49   15.08</time>
 </calculation>
 <calculation>
  <scstep>
   <time name="dav">    0.99    1.01</time>
   <time name="total">    1.19    1.21</time>
   <energy>
    <i name="alphaZ">      6.24909430 </i>
    <i name="ewald">   2594.46937060 </i>
    <i name="hartreedc">  -3087.60004085 </i>
    <i name="XCdc">     55.11067061 </i>
    <i name="pawpsdc">   1685.22192849 </i>
    <i name="pawaedc">  -1687.91161269 </i>
    <i name="eentropy">     -0.00000000 </i>
    <i name="bandstr">   -190.96232789 </i>
    <i name="atom">    588.50889549 </i>
    <i name="e_fr_energy">    -36.91402196 </i>
    <i name="e_wo_entrp">    -36.91402196 </i>
    <i name="e_0_energy">    -36.91402196 </i>
   </energy>
  </scstep>
  <scstep>
   <time name="dav">    1.04    1.04</time>
   <time name="total">    1.23    1.24</time>
   <energy>
    <i name="e_fr_energy">    -36.91346228 </i>
    <i name="e_wo_entrp">    -36.91346228 </i>
    <i name="e_0_energy">    -36.91346228 </i>
   </energy>
  </scstep>
  <scstep>
   <time name="dav">    1.04    1.09</time>
   <time name="total">    1.24    1.29</time>
   <energy>
    <i name="e_fr_energy">    -36.91306210 </i>
    <i name="e_wo_entrp">    -36.91306210 </i>
    <i name="e_0_energy">    -36.91306210 </i>
   </energy>
  </scstep>
  <scstep>
   <time name="dav">    1.16    1.20</time>
   <time name="total">    1.36    1.41</time>
   <energy>
    <i name="e_fr_energy">    -36.91306407 </i>
    <i name="e_wo_entrp">    -36.91306407 </i>
    <i name="e_0_energy">    -36.91306407 </i>
   </energy>
  </scstep>
  <scstep>
   <time name="dav">    1.08    1.18</time>
   <time name="total">    1.20    1.30</time>
   <energy>
    <i name="alphaZ">      6.24909430 </i>
    <i name="ewald">   2594.46937060 </i>
    <i name="hartreedc">  -3088.15956860 </i>
    <i name="XCdc">     55.11360628 </i>
    <i name="pawpsdc">   1720.61555818 </i>
    <i name="pawaedc">  -1723.32140259 </i>
    <i name="eentropy">     -0.00000000 </i>
    <i name="bandstr">   -190.38861849 </i>
    <i name="atom">    588.50889549 </i>
    <i name="e_fr_energy">    -36.91306485 </i>
    <i name="e_wo_entrp">    -36.91306485 </i>
    <i name="e_0_energy">    -36.91306485 </i>
   </energy>
  </scstep>
  <structure>
   <crystal>
    <varray name="basis" >
     <v>       4.26619510       0.00000000       0.00000000 </v>
     <v>       0.00000000       2.46503110       0.00000000 </v>
     <v>       0.00000000       0.00000000      20.00000000 </v>
    </varray>
    <i name="volume">    210.32607169 </i>
    <varray name="rec_basis" >
     <v>       0.23440091       0.00000000       0.00000000 </v>
     <v>       0.00000000       0.40567440       0.00000000 </v>
     <v>       0.00000000       0.00000000       0.05000000 </v>
    </varray>
   </crystal>
   <varray name="positions" >
    <v>       0.33340128       0.00000000       0.50000000 </v>
    <v>       0.66659872       0.00000000       0.50000000 </v>
    <v>       0.16659872       0.50000000       0.50000000 </v>
    <v>       0.83340128       0.50000000       0.50000000 </v>
   </varray>
  </structure>
  <varray name="forces" >
   <v>      -0.02550227       0.00000000       0.00000000 </v>
   <v>       0.02550227       0.00000000      -0.00000000 </v>
   <v>       0.02550227       0.00000000       0.00000000 </v>
   <v>      -0.02550227       0.00000000      -0.00000000 </v>
  </varray>
  <varray name="stress" >
   <v>      -0.04277807      -0.00000000       0.00000000 </v>
   <v>       0.00000000       0.11455308       0.00000000 </v>
   <v>       0.00000000       0.00000000      -4.21654619 </v>
  </varray>
  <energy>
   <i name="e_fr_energy">    -36.91306485 </i>
   <i name="e_wo_entrp">    -36.91306485 </i>
   <i name="e_0_energy">     -0.00000000 </i>
  </energy>
  <time name="totalsc">    7.40    7.75</time>
 </calculation>
 <calculation>
  <scstep>
   <time name="dav">    1.06    1.09</time>
   <time name="total">    1.28    1.32</time>
   <energy>
    <i name="alphaZ">      6.24714071 </i>
    <i name="ewald">   2593.48953836 </i>
    <i name="hartreedc">  -3087.23838341 </i>
    <i name="XCdc">     55.10852376 </i>
    <i name="pawpsdc">   1720.20526208 </i>
    <i name="pawaedc">  -1722.91104324 </i>
    <i name="eentropy">     -0.00000000 </i>
    <i name="bandstr">   -190.32286034 </i>
    <i name="atom">    588.50889549 </i>
    <i name="e_fr_energy">    -36.91292661 </i>
    <i name="e_wo_entrp">    -36.91292661 </i>
    <i name="e_0_energy">    -36.91292661 </i>
   </energy>
  </scstep>
  <scstep>
   <time name="dav">    1.08    1.12</time>
   <time name="total">    1.29    1.33</time>
   <energy>
    <i name="e_fr_energy">    -36.91294006 </i>
    <i name="e_wo_entrp">    -36.91294006 </i>
    <i name="e_0_energy">    -36.91294006 </i>
   </energy>
  </scstep>
  <scstep>
   <time name="dav">    1.08    1.13</time>
   <time name="total">    1.30    1.35</time>
   <energy>
    <i name="e_fr_energy">    -36.91294133 </i>
    <i name="e_wo_entrp">    -36.91294133 </i>
    <i name="e_0_energy">    -36.91294133 </i>
   </energy>
  </scstep>
  <scstep>
   <time name="dav">    0.83    0.84</time>
   <time name="total">    1.03    1.05</time>
   <energy>
    <i name="e_fr_energy">    -36.91294578 </i>
    <i name="e_wo_entrp">    -36.91294578 </i>
    <i name="e_0_energy">    -36.91294578 </i>
   </energy>
  </scstep>
  <scstep>
   <time name="dav">    0.80    0.83</time>
   <time name="total">    1.01    1.04</time>
   <energy>
    <i name="e_fr_energy">    -36.91294949 </i>
    <i name="e_wo_entrp">    -36.91294949 </i>
    <i name="e_0_energy">    -36.91294949 </i>
   </energy>
  </scstep>
  <scstep>
   <time name="dav">    0.84    0.88</time>
   <time name="total">    1.07    1.13</time>
   <energy>
    <i name="e_fr_energy">    -36.91295501 </i>
    <i name="e_wo_entrp">    -36.91295501 </i>
    <i name="e_0_energy">    -36.91295501 </i>
   </energy>
  </scstep>
  <scstep>
   <time name="dav">    0.81    0.83</time>
   <time name="total">    1.02    1.05</time>
   <energy>
    <i name="e_fr_energy">    -36.91295926 </i>
    <i name="e_wo_entrp">    -36.91295926 </i>
    <i name="e_0_energy">    -36.91295926 </i>
   </energy>
  </scstep>
  <scstep>
   <time name="dav">    0.89    0.95</time>
   <time name="total">    1.12    1.19</time>
   <energy>
    <i name="e_fr_energy">    -36.91296071 </i>
    <i name="e_wo_entrp">    -36.91296071 </i>
    <i name="e_0_energy">    -36.91296071 </i>
   </energy>
  </scstep>
  <scstep>
   <time name="dav">    0.86    0.89</time>
   <time name="total">    0.98    1.02</time>
   <energy>
    <i name="alphaZ">      6.24714071 </i>
    <i name="ewald">   2593.48953836 </i>
    <i name="hartreedc">  -3087.34181106 </i>
    <i name="XCdc">     55.10938248 </i>
    <i name="pawpsdc">   1718.78114351 </i>
    <i name="pawaedc">  -1721.48628507 </i>
    <i name="eentropy">     -0.00000000 </i>
    <i name="bandstr">   -190.22096566 </i>
    <i name="atom">    588.50889549 </i>
    <i name="e_fr_energy">    -36.91296126 </i>
    <i name="e_wo_entrp">    -36.91296126 </i>
    <i name="e_0_energy">    -36.91296126 </i>
   </energy>
  </scstep>
  <structure>
   <crystal>
    <varray name="basis" >
     <v>       4.26630836       0.00000000       0.00000000 </v>
     <v>       0.00000000       2.46573649       0.00000000 </v>
     <v>       0.00000000       0.00000000      20.00000000 </v>
    </varray>
    <i name="volume">    210.39184447 </i>
    <varray name="rec_basis" >
     <v>       0.23439468       0.00000000       0.00000000 </v>
     <v>       0.00000000       0.40555834       0.00000000 </v>
     <v>       0.00000000       0.00000000       0.05000000 </v>
    </varray>
   </crystal>
   <varray name="positions" >
    <v>       0.33315783       0.00000000       0.50000000 </v>
    <v>       0.66684217       0.00000000       0.50000000 </v>
    <v>       0.16684217       0.50000000       0.50000000 </v>
    <v>       0.83315783       0.50000000       0.50000000 </v>
   </varray>
  </structure>
  <varray name="forces" >
   <v>       0.09144316       0.00000000       0.00000000 </v>
   <v>      -0.09144316       0.00000000       0.00000000 </v>
   <v>      -0.09144316       0.00000000      -0.00000000 </v>
   <v>       0.09144316      -0.00000000       0.00000000 </v>
  </varray>
  <varray name="stress" >
   <v>      -0.65315474       0.00000000       0.00000000 </v>
   <v>       0.00000000       0.04604460       0.00000000 </v>
   <v>       0.00000000       0.00000000      -4.34348164 </v>
  </varray>
  <energy>
   <i name="e_fr_energy">    -36.91296126 </i>
   <i name="e_wo_entrp">    -36.91296126 </i>
   <i name="e_0_energy">     -0.00000000 </i>
  </energy>
  <time name="totalsc">   11.19   11.62</time>
 </calculation>
 <calculation>
  <scstep>
   <time name="dav">    1.08    1.12</time>
   <time name="total">    1.31    1.36</time>
   <energy>
    <i name="alphaZ">      6.24849532 </i>
    <i name="ewald">   2594.16883331 </i>
    <i name="hartreedc">  -3088.00682162 </i>
    <i name="XCdc">     55.11320613 </i>
    <i name="pawpsdc">   1718.78266702 </i>
    <i name="pawaedc">  -1721.48780824 </i>
    <i name="eentropy">     -0.00000000 </i>
    <i name="bandstr">   -190.24057186 </i>
    <i name="atom">    588.50889549 </i>
    <i name="e_fr_energy">    -36.91310445 </i>
    <i name="e_wo_entrp">    -36.91310445 </i>
    <i name="e_0_energy">    -36.91310445 </i>
   </energy>
  </scstep>
  <scstep>
   <time name="dav">    1.12    1.22</time>
   <time name="total">    1.35    1.46</time>
   <energy>
    <i name="e_fr_energy">    -36.91310903 </i>
    <i name="e_wo_entrp">    -36.91310903 </i>
    <i name="e_0_energy">    -36.91310903 </i>
   </energy>
  </scstep>
  <scstep>
   <time name="dav">    0.92    0.92</time>
   <time name="total">    1.13    1.14</time>
   <energy>
    <i name="e_fr_energy">    -36.91310783 </i>
    <i name="e_wo_entrp">    -36.91310783 </i>
    <i name="e_0_energy">    -36.91310783 </i>
   </energy>
  </scstep>
  <scstep>
   <time name="dav">    0.77    0.78</time>
   <time name="total">    0.99    1.02</time>
   <energy>
    <i name="e_fr_energy">    -36.91310783 </i>
    <i name="e_wo_entrp">    -36.91310783 </i>
    <i name="e_0_energy">    -36.91310783 </i>
   </energy>
  </scstep>
  <scstep>
   <time name="dav">    0.86    1.01</time>
   <time name="total">    0.99    1.15</time>
   <energy>
    <i name="alphaZ">      6.24849532 </i>
    <i name="ewald">   2594.16883331 </i>
    <i name="hartreedc">  -3088.02051462 </i>
    <i name="XCdc">     55.11330842 </i>
    <i name="pawpsdc">   1719.66940056 </i>
    <i name="pawaedc">  -1722.37492833 </i>
    <i name="eentropy">     -0.00000000 </i>
    <i name="bandstr">   -190.22659801 </i>
    <i name="atom">    588.50889549 </i>
    <i name="e_fr_energy">    -36.91310786 </i>
    <i name="e_wo_entrp">    -36.91310786 </i>
    <i name="e_0_energy">    -36.91310786 </i>
   </energy>
  </scstep>
  <structure>
   <crystal>
    <varray name="basis" >
     <v>       4.26622982       0.00000000       0.00000000 </v>
     <v>       0.00000000       2.46524733       0.00000000 </v>
     <v>       0.00000000       0.00000000      20.00000000 </v>
    </varray>
    <i name="volume">    210.34623351 </i>
    <varray name="rec_basis" >
     <v>       0.23439900       0.00000000       0.00000000 </v>
     <v>       0.00000000       0.40563881       0.00000000 </v>
     <v>       0.00000000       0.00000000       0.05000000 </v>
    </varray>
   </crystal>
   <varray name="positions" >
    <v>       0.33332665       0.00000000       0.50000000 </v>
    <v>       0.66667335       0.00000000       0.50000000 </v>
    <v>       0.16667335       0.50000000       0.50000000 </v>
    <v>       0.83332665       0.50000000       0.50000000 </v>
   </varray>
  </structure>
  <varray name="forces" >
   <v>       0.01044442       0.00000000      -0.00000000 </v>
   <v>      -0.01044442       0.00000000       0.00000000 </v>
   <v>      -0.01044442       0.00000000       0.00000000 </v>
   <v>       0.01044442       0.00000000      -0.00000000 </v>
  </varray>
  <varray name="stress" >
   <v>      -0.22377782       0.00000000       0.00000000 </v>
   <v>       0.00000000       0.08540735       0.00000000 </v>
   <v>       0.00000000       0.00000000      -4.33381381 </v>
  </varray>
  <energy>
   <i name="e_fr_energy">    -36.91310786 </i>
   <i name="e_wo_entrp">    -36.91310786 </i>
   <i name="e_0_energy">     -0.00000000 </i>
  </energy>
  <time name="totalsc">    6.94    7.32</time>
 </calculation>
 <calculation>
  <scstep>
   <time name="dav">    0.97    0.98</time>
   <time name="total">    1.22    1.24</time>
   <energy>
    <i name="alphaZ">      6.24865773 </i>
    <i name="ewald">   2594.25031041 </i>
    <i name="hartreedc">  -3088.10168729 </i>
    <i name="XCdc">     55.11378498 </i>
    <i name="pawpsdc">   1719.65232761 </i>
    <i name="pawaedc">  -1722.35786137 </i>
    <i name="eentropy">     -0.00000000 </i>
    <i name="bandstr">   -190.22753707 </i>
    <i name="atom">    588.50889549 </i>
    <i name="e_fr_energy">    -36.91310951 </i>
    <i name="e_wo_entrp">    -36.91310951 </i>
    <i name="e_0_energy">    -36.91310951 </i>
   </energy>
  </scstep>
  <scstep>
   <time name="dav">    0.75    0.77</time>
   <time name="total">    0.99    1.04</time>
   <energy>
    <i name="e_fr_energy">    -36.91310958 </i>
    <i name="e_wo_entrp">    -36.91310958 </i>
    <i name="e_0_energy">    -36.91310958 </i>
   </energy>
  </scstep>
  <scstep>
   <time name="dav">    0.74    0.82</time>
   <time name="total">    0.96    1.05</time>
   <energy>
    <i name="e_fr_energy">    -36.91310959 </i>
    <i name="e_wo_entrp">    -36.91310959 </i>
    <i name="e_0_energy">    -36.91310959 </i>
   </energy>
  </scstep>
  <scstep>
   <time name="dav">    0.73    0.75</time>
   <time name="total">    0.95    0.96</time>
   <energy>
    <i name="e_fr_energy">    -36.91310961 </i>
    <i name="e_wo_entrp">    -36.91310961 </i>
    <i name="e_0_energy">    -36.91310961 </i>
   </energy>
  </scstep>
  <scstep>
   <time name="dav">    0.70    0.71</time>
   <time name="total">    0.82    0.83</time>
   <energy>
    <i name="alphaZ">      6.24865773 </i>
    <i name="ewald">   2594.25031041 </i>
    <i name="hartreedc">  -3088.10568403 </i>
    <i name="XCdc">     55.11382014 </i>
    <i name="pawpsdc">   1719.75387103 </i>
    <i name="pawaedc">  -1722.45944884 </i>
    <i name="eentropy">     -0.00000000 </i>
    <i name="bandstr">   -190.22353154 </i>
    <i name="atom">    588.50889549 </i>
    <i name="e_fr_energy">    -36.91310963 </i>
    <i name="e_wo_entrp">    -36.91310963 </i>
    <i name="e_0_energy">    -36.91310963 </i>
   </energy>
  </scstep>
  <structure>
   <crystal>
    <varray name="basis" >
     <v>       4.26622041       0.00000000       0.00000000 </v>
     <v>       0.00000000       2.46518870       0.00000000 </v>
     <v>       0.00000000       0.00000000      20.00000000 </v>
    </varray>
    <i name="volume">    210.34076648 </i>
    <varray name="rec_basis" >
     <v>       0.23439952       0.00000000       0.00000000 </v>
     <v>       0.00000000       0.40564846       0.00000000 </v>
     <v>       0.00000000       0.00000000       0.05000000 </v>
    </varray>
   </crystal>
   <varray name="positions" >
    <v>       0.33334688       0.00000000       0.50000000 </v>
    <v>       0.66665312       0.00000000       0.50000000 </v>
    <v>       0.16665312       0.50000000       0.50000000 </v>
    <v>       0.83334688       0.50000000       0.50000000 </v>
   </varray>
  </structure>
  <varray name="forces" >
   <v>       0.00062501       0.00000000      -0.00000000 </v>
   <v>      -0.00062501       0.00000000       0.00000000 </v>
   <v>      -0.00062501       0.00000000       0.00000000 </v>
   <v>       0.00062501       0.00000000      -0.00000000 </v>
  </varray>
  <varray name="stress" >
   <v>      -0.16966613       0.00000000       0.00000000 </v>
   <v>      -0.00000000       0.09116379       0.00000000 </v>
   <v>       0.00000000       0.00000000      -4.33897465 </v>
  </varray>
  <energy>
   <i name="e_fr_energy">    -36.91310963 </i>
   <i name="e_wo_entrp">    -36.91310963 </i>
   <i name="e_0_energy">     -0.00000000 </i>
  </energy>
  <time name="totalsc">    5.90    6.09</time>
  <eigenvalues>
   <array>
    <dimension dim="1">band</dimension>
    <dimension dim="2">kpoint</dimension>
    <dimension dim="3">spin</dimension>
    <field>eigene</field>
    <field>occ</field>
    <set>
     <set comment="spin 1">
      <set comment="kpoint 1">
       <r>  -22.2791    1.0000 </r>
       <r>  -17.0191    1.0000 </r>
       <r>  -15.9905    1.0000 </r>
       <r>  -10.3744    1.0000 </r>
       <r>   -9.1657    1.0000 </r>
       <r>   -5.7703    1.0000 </r>
       <r>   -5.7695    1.0000 </r>
       <r>   -5.0971    1.0000 </r>
       <r>   -1.0597    0.0000 </r>
       <r>    0.5159    0.0000 </r>
       <r>    1.3013    0.0000 </r>
       <r>    1.6308    0.0000 </r>
      </set>
      <set comment="kpoint 2">
       <r>  -21.9095    1.0000 </r>
       <r>  -19.0193    1.0000 </r>
       <r>  -13.4495    1.0000 </r>
       <r>   -9.9335    1.0000 </r>
       <r>   -8.8025    1.0000 </r>
       <r>   -7.1527    1.0000 </r>
       <r>   -6.6564    1.0000 </r>
       <r>   -6.4773    1.0000 </r>
       <r>    1.0183    0.0000 </r>
       <r>    1.0618    0.0000 </r>
       <r>    1.8101    0.0000 </r>
       <r>    2.1457    0.0000 </r>
      </set>
      <set comment="kpoint 3">
       <r>  -20.8103    1.0000 </r>
       <r>  -20.8103    1.0000 </r>
       <r>  -10.1657    1.0000 </r>
       <r>  -10.1657    1.0000 </r>
       <r>   -8.6416    1.0000 </r>
       <r>   -8.6416    1.0000 </r>
       <r>   -7.7921    1.0000 </r>
       <r>   -7.7921    1.0000 </r>
       <r>    2.5231    0.0000 </r>
       <r>    2.5231    0.0000 </r>
       <r>    3.3189    0.0000 </r>
       <r>    3.3189    0.0000 </r>
      </set>
      <set comment="kpoint 4">
       <r>  -22.0023    1.0000 </r>
       <r>  -16.7815    1.0000 </r>
       <r>  -15.7606    1.0000 </r>
       <r>  -10.2765    1.0000 </r>
       <r>  -10.0436    1.0000 </r>
       <r>   -6.7960    1.0000 </r>
       <r>   -6.3612    1.0000 </r>
       <r>   -4.7600    1.0000 </r>
       <r>   -1.1666    0.0000 </r>
       <r>    0.8921    0.0000 </r>
       <r>    1.6824    0.0000 </r>
       <r>    2.0163    0.0000 </r>
      </set>
      <set comment="kpoint 5">
       <r>  -21.6338    1.0000 </r>
       <r>  -18.7586    1.0000 </r>
       <r>  -13.2918    1.0000 </r>
       <r>   -9.8903    1.0000 </r>
       <r>   -9.6064    1.0000 </r>
       <r>   -7.9357    1.0000 </r>
       <r>   -7.0146    1.0000 </r>
       <r>   -6.3481    1.0000 </r>
       <r>    0.8891    0.0000 </r>
       <r>    1.3946    0.0000 </r>
       <r>    2.1904    0.0000 </r>
       <r>    2.5312    0.0000 </r>
      </set>
      <set comment="kpoint 6">
       <r>  -20.5389    1.0000 </r>
       <r>  -20.5389    1.0000 </r>
       <r>  -10.2643    1.0000 </r>
       <r>  -10.2643    1.0000 </r>
       <r>   -8.7354    1.0000 </r>
       <r>   -8.7354    1.0000 </r>
       <r>   -8.3244    1.0000 </r>
       <r>   -8.3244    1.0000 </r>
       <r>    2.9002    0.0000 </r>
       <r>    2.9002    0.0000 </r>
       <r>    3.6989    0.0000 </r>
       <r>    3.6989    0.0000 </r>
      </set>
      <set comment="kpoint 7">
       <r>  -21.1770    1.0000 </r>
       <r>  -16.0708    1.0000 </r>
       <r>  -15.2052    1.0000 </r>
       <r>  -12.4894    1.0000 </r>
       <r>   -9.0681    1.0000 </r>
       <r>   -8.9618    1.0000 </r>
       <r>   -7.8859    1.0000 </r>
       <r>   -3.7567    1.0000 </r>
       <r>   -1.7936    0.0000 </r>
       <r>    2.0207    0.0000 </r>
       <r>    2.8219    0.0000 </r>
       <r>    3.1729    0.0000 </r>
      </set>
      <set comment="kpoint 8">
       <r>  -20.8122    1.0000 </r>
       <r>  -17.9869    1.0000 </r>
       <r>  -13.2790    1.0000 </r>
       <r>  -11.7005    1.0000 </r>
       <r>  -10.1725    1.0000 </r>
       <r>   -8.6443    1.0000 </r>
       <r>   -7.7832    1.0000 </r>
       <r>   -5.4819    1.0000 </r>
       <r>    0.0829    0.0000 </r>
       <r>    2.5205    0.0000 </r>
       <r>    3.3159    0.0000 </r>
       <r>    3.6873    0.0000 </r>
      </set>
      <set comment="kpoint 9">
       <r>  -19.7310    1.0000 </r>
       <r>  -19.7310    1.0000 </r>
       <r>  -11.7625    1.0000 </r>
       <r>  -11.7625    1.0000 </r>
       <r>   -9.3988    1.0000 </r>
       <r>   -9.3988    1.0000 </r>
       <r>   -7.4042    1.0000 </r>
       <r>   -7.4042    1.0000 </r>
       <r>    2.4728    0.0000 </r>
       <r>    2.4728    0.0000 </r>
       <r>    4.0222    0.0000 </r>
       <r>    4.0222    0.0000 </r>
      </set>
      <set comment="kpoint 10">
       <r>  -19.8231    1.0000 </r>
       <r>  -15.9040    1.0000 </r>
       <r>  -14.8939    1.0000 </r>
       <r>  -13.1352    1.0000 </r>
       <r>  -11.2484    1.0000 </r>
       <r>   -9.8181    1.0000 </r>
       <r>   -7.5031    1.0000 </r>
       <r>   -3.3678    1.0000 </r>
       <r>   -2.1195    0.0000 </r>
       <r>    2.7266    0.0000 </r>
       <r>    3.8953    0.0000 </r>
       <r>    4.7006    0.0000 </r>
      </set>
      <set comment="kpoint 11">
       <r>  -19.4656    1.0000 </r>
       <r>  -16.8101    1.0000 </r>
       <r>  -15.1524    1.0000 </r>
       <r>  -12.6163    1.0000 </r>
       <r>  -11.3257    1.0000 </r>
       <r>   -8.8915    1.0000 </r>
       <r>   -7.1235    1.0000 </r>
       <r>   -4.5166    1.0000 </r>
       <r>   -1.1841    0.0000 </r>
       <r>    1.8479    0.0000 </r>
       <r>    4.3842    0.0000 </r>
       <r>    5.2337    0.0000 </r>
      </set>
      <set comment="kpoint 12">
       <r>  -18.4165    1.0000 </r>
       <r>  -18.4165    1.0000 </r>
       <r>  -14.1848    1.0000 </r>
       <r>  -14.1848    1.0000 </r>
       <r>   -9.2501    1.0000 </r>
       <r>   -9.2501    1.0000 </r>
       <r>   -6.0468    1.0000 </r>
       <r>   -6.0468    1.0000 </r>
       <r>    0.2527    0.0000 </r>
       <r>    0.2527    0.0000 </r>
       <r>    5.1718    0.0000 </r>
       <r>    5.1718    0.0000 </r>
      </set>
      <set comment="kpoint 13">
       <r>  -17.9930    1.0000 </r>
       <r>  -17.9930    1.0000 </r>
       <r>  -13.2701    1.0000 </r>
       <r>  -13.2701    1.0000 </r>
       <r>  -11.7038    1.0000 </r>
       <r>  -11.7038    1.0000 </r>
       <r>   -5.4889    1.0000 </r>
       <r>   -5.4889    1.0000 </r>
       <r>    0.0886    0.0000 </r>
       <r>    0.0886    0.0000 </r>
       <r>    6.4852    0.0000 </r>
       <r>    6.4852    0.0000 </r>
      </set>
      <set comment="kpoint 14">
       <r>  -17.6653    1.0000 </r>
       <r>  -17.6653    1.0000 </r>
       <r>  -14.7597    1.0000 </r>
       <r>  -14.7597    1.0000 </r>
       <r>  -10.1701    1.0000 </r>
       <r>  -10.1701    1.0000 </r>
       <r>   -5.3144    1.0000 </r>
       <r>   -5.3144    1.0000 </r>
       <r>   -0.4989    0.0000 </r>
       <r>   -0.4989    0.0000 </r>
       <r>    6.2465    0.0000 </r>
       <r>    6.2465    0.0000 </r>
      </set>
      <set comment="kpoint 15">
       <r>  -17.0323    1.0000 </r>
       <r>  -17.0323    1.0000 </r>
       <r>  -15.9876    1.0000 </r>
       <r>  -15.9876    1.0000 </r>
       <r>   -9.1529    1.0000 </r>
       <r>   -9.1529    1.0000 </r>
       <r>   -5.1094    1.0000 </r>
       <r>   -5.1094    1.0000 </r>
       <r>   -1.0567    0.0000 </r>
       <r>   -1.0567    0.0000 </r>
       <r>    4.6647    0.0000 </r>
       <r>    4.6647    0.0000 </r>
      </set>
     </set>
    </set>
   </array>
  </eigenvalues>
  <separator name="orbital magnetization" >
   <v name="MAGDIPOLOUT">      0.00000000      0.00000000      0.00000000</v>
  </separator>
  <dos>
   <i name="efermi">     -2.93663154 </i>
   <total>
    <array>
     <dimension dim="1">gridpoints</dimension>
     <dimension dim="2">spin</dimension>
     <field>energy</field>
     <field>total</field>
     <field>integrated</field>
     <set>
      <set comment="spin 1">
       <r>   -23.7173     0.0000     0.0000 </r>
       <r>   -23.6119     0.0000     0.0000 </r>
       <r>   -23.5064     0.0000     0.0000 </r>
       <r>   -23.4009     0.0000     0.0000 </r>
       <r>   -23.2955     0.0000     0.0000 </r>
       <r>   -23.1900     0.0000     0.0000 </r>
       <r>   -23.0845     0.0000     0.0000 </r>
       <r>   -22.9791     0.0000     0.0000 </r>
       <r>   -22.8736     0.0000     0.0000 </r>
       <r>   -22.7681     0.0000     0.0000 </r>
       <r>   -22.6626     0.0000     0.0000 </r>
       <r>   -22.5572     0.0000     0.0000 </r>
       <r>   -22.4517     0.0043     0.0005 </r>
       <r>   -22.3462     0.0971     0.0107 </r>
       <r>   -22.2408     0.3175     0.0442 </r>
       <r>   -22.1353     0.1975     0.0650 </r>
       <r>   -22.0298     0.4414     0.1116 </r>
       <r>   -21.9244     1.0536     0.2227 </r>
       <r>   -21.8189     0.7378     0.3005 </r>
       <r>   -21.7134     0.4188     0.3447 </r>
       <r>   -21.6080     1.2183     0.4732 </r>
       <r>   -21.5025     0.7719     0.5546 </r>
       <r>   -21.3970     0.0751     0.5625 </r>
       <r>   -21.2915     0.0623     0.5691 </r>
       <r>   -21.1861     0.4699     0.6186 </r>
       <r>   -21.0806     0.5508     0.6767 </r>
       <r>   -20.9751     0.1363     0.6911 </r>
       <r>   -20.8697     0.6969     0.7646 </r>
       <r>   -20.7642     1.9319     0.9684 </r>
       <r>   -20.6587     0.9447     1.0680 </r>
       <r>   -20.5533     0.9414     1.1673 </r>
       <r>   -20.4478     1.1424     1.2878 </r>
       <r>   -20.3423     0.2279     1.3118 </r>
       <r>   -20.2369     0.0064     1.3125 </r>
       <r>   -20.1314     0.0000     1.3125 </r>
       <r>   -20.0259     0.0025     1.3128 </r>
       <r>   -19.9204     0.1062     1.3240 </r>
       <r>   -19.8150     0.8165     1.4101 </r>
       <r>   -19.7095     1.6646     1.5856 </r>
       <r>   -19.6040     0.9382     1.6846 </r>
       <r>   -19.4986     0.7863     1.7675 </r>
       <r>   -19.3931     1.2501     1.8994 </r>
       <r>   -19.2876     0.3477     1.9360 </r>
       <r>   -19.1822     0.0265     1.9388 </r>
       <r>   -19.0767     0.2344     1.9635 </r>
       <r>   -18.9712     0.6469     2.0318 </r>
       <r>   -18.8658     0.4271     2.0768 </r>
       <r>   -18.7603     1.0263     2.1851 </r>
       <r>   -18.6548     1.0405     2.2948 </r>
       <r>   -18.5493     0.2356     2.3197 </r>
       <r>   -18.4439     0.7604     2.3998 </r>
       <r>   -18.3384     1.2230     2.5288 </r>
       <r>   -18.2329     0.3090     2.5614 </r>
       <r>   -18.1275     0.0995     2.5719 </r>
       <r>   -18.0220     1.0492     2.6826 </r>
       <r>   -17.9165     1.8731     2.8801 </r>
       <r>   -17.8111     0.5691     2.9402 </r>
       <r>   -17.7056     0.6485     3.0086 </r>
       <r>   -17.6001     1.2737     3.1429 </r>
       <r>   -17.4947     0.4041     3.1855 </r>
       <r>   -17.3892     0.0186     3.1875 </r>
       <r>   -17.2837     0.0004     3.1875 </r>
       <r>   -17.1783     0.0301     3.1907 </r>
       <r>   -17.0728     0.4387     3.2370 </r>
       <r>   -16.9673     0.9953     3.3419 </r>
       <r>   -16.8618     0.9979     3.4472 </r>
       <r>   -16.7564     1.9125     3.6489 </r>
       <r>   -16.6509     0.8913     3.7429 </r>
       <r>   -16.5454     0.0665     3.7499 </r>
       <r>   -16.4400     0.0007     3.7500 </r>
       <r>   -16.3345     0.0001     3.7500 </r>
       <r>   -16.2290     0.0154     3.7516 </r>
       <r>   -16.1236     0.3055     3.7839 </r>
       <r>   -16.0181     1.2584     3.9166 </r>
       <r>   -15.9126     1.6711     4.0928 </r>
       <r>   -15.8072     1.0899     4.2078 </r>
       <r>   -15.7017     0.7508     4.2870 </r>
       <r>   -15.5962     0.2303     4.3112 </r>
       <r>   -15.4907     0.0118     4.3125 </r>
       <r>   -15.3853     0.0077     4.3133 </r>
       <r>   -15.2798     0.2496     4.3396 </r>
       <r>   -15.1743     1.4312     4.4906 </r>
       <r>   -15.0689     1.5614     4.6553 </r>
       <r>   -14.9634     0.4942     4.7074 </r>
       <r>   -14.8579     0.8298     4.7949 </r>
       <r>   -14.7525     1.4211     4.9448 </r>
       <r>   -14.6470     0.9842     5.0486 </r>
       <r>   -14.5415     0.1296     5.0622 </r>
       <r>   -14.4361     0.0029     5.0625 </r>
       <r>   -14.3306     0.0460     5.0674 </r>
       <r>   -14.2251     0.6270     5.1335 </r>
       <r>   -14.1196     1.2737     5.2679 </r>
       <r>   -14.0142     0.4045     5.3105 </r>
       <r>   -13.9087     0.0187     5.3125 </r>
       <r>   -13.8032     0.0001     5.3125 </r>
       <r>   -13.6978     0.0003     5.3125 </r>
       <r>   -13.5923     0.0255     5.3152 </r>
       <r>   -13.4868     0.3402     5.3511 </r>
       <r>   -13.3814     1.1074     5.4679 </r>
       <r>   -13.2759     2.9073     5.7745 </r>
       <r>   -13.1704     2.7530     6.0649 </r>
       <r>   -13.0650     0.9660     6.1668 </r>
       <r>   -12.9595     0.1889     6.1867 </r>
       <r>   -12.8540     0.0086     6.1876 </r>
       <r>   -12.7486     0.0721     6.1952 </r>
       <r>   -12.6431     0.7801     6.2775 </r>
       <r>   -12.5376     1.4960     6.4353 </r>
       <r>   -12.4321     0.9479     6.5352 </r>
       <r>   -12.3267     0.2458     6.5612 </r>
       <r>   -12.2212     0.0126     6.5625 </r>
       <r>   -12.1157     0.0001     6.5625 </r>
       <r>   -12.0103     0.0006     6.5626 </r>
       <r>   -11.9048     0.0591     6.5688 </r>
       <r>   -11.7993     0.9519     6.6692 </r>
       <r>   -11.6939     2.8986     6.9749 </r>
       <r>   -11.5884     1.8050     7.1653 </r>
       <r>   -11.4829     0.2387     7.1904 </r>
       <r>   -11.3775     0.5624     7.2498 </r>
       <r>   -11.2720     1.6874     7.4277 </r>
       <r>   -11.1665     1.1026     7.5440 </r>
       <r>   -11.0610     0.1701     7.5620 </r>
       <r>   -10.9556     0.0050     7.5625 </r>
       <r>   -10.8501     0.0000     7.5625 </r>
       <r>   -10.7446     0.0000     7.5625 </r>
       <r>   -10.6392     0.0001     7.5625 </r>
       <r>   -10.5337     0.0075     7.5633 </r>
       <r>   -10.4282     0.1687     7.5811 </r>
       <r>   -10.3228     1.1588     7.7033 </r>
       <r>   -10.2173     3.4729     8.0696 </r>
       <r>   -10.1118     4.2109     8.5137 </r>
       <r>   -10.0064     2.1277     8.7381 </r>
       <r>    -9.9009     2.0768     8.9572 </r>
       <r>    -9.7954     2.0985     9.1785 </r>
       <r>    -9.6899     0.9123     9.2747 </r>
       <r>    -9.5845     1.2493     9.4065 </r>
       <r>    -9.4790     1.1075     9.5233 </r>
       <r>    -9.3735     1.3917     9.6701 </r>
       <r>    -9.2681     1.7366     9.8532 </r>
       <r>    -9.1626     2.0795    10.0725 </r>
       <r>    -9.0571     1.7350    10.2555 </r>
       <r>    -8.9517     1.6288    10.4273 </r>
       <r>    -8.8462     2.2508    10.6647 </r>
       <r>    -8.7407     2.5481    10.9334 </r>
       <r>    -8.6353     2.9672    11.2464 </r>
       <r>    -8.5298     1.6196    11.4172 </r>
       <r>    -8.4243     0.3756    11.4568 </r>
       <r>    -8.3188     1.0756    11.5703 </r>
       <r>    -8.2134     0.9736    11.6729 </r>
       <r>    -8.1079     0.1540    11.6892 </r>
       <r>    -8.0024     0.4559    11.7373 </r>
       <r>    -7.8970     1.9345    11.9413 </r>
       <r>    -7.7915     2.6636    12.2222 </r>
       <r>    -7.6860     1.7638    12.4083 </r>
       <r>    -7.5806     0.4475    12.4555 </r>
       <r>    -7.4751     0.9791    12.5587 </r>
       <r>    -7.3696     1.6321    12.7309 </r>
       <r>    -7.2642     0.8410    12.8196 </r>
       <r>    -7.1587     1.2677    12.9533 </r>
       <r>    -7.0532     2.4401    13.2106 </r>
       <r>    -6.9478     1.7440    13.3946 </r>
       <r>    -6.8423     0.6984    13.4682 </r>
       <r>    -6.7368     0.8066    13.5533 </r>
       <r>    -6.6313     0.8495    13.6429 </r>
       <r>    -6.5259     0.7019    13.7169 </r>
       <r>    -6.4204     1.2576    13.8496 </r>
       <r>    -6.3149     2.1296    14.0742 </r>
       <r>    -6.2095     1.0218    14.1819 </r>
       <r>    -6.1040     0.5478    14.2397 </r>
       <r>    -5.9985     1.2893    14.3757 </r>
       <r>    -5.8931     0.5992    14.4389 </r>
       <r>    -5.7876     0.4622    14.4876 </r>
       <r>    -5.6821     0.5920    14.5501 </r>
       <r>    -5.5767     0.4555    14.5981 </r>
       <r>    -5.4712     1.7324    14.7808 </r>
       <r>    -5.3657     1.8734    14.9784 </r>
       <r>    -5.2602     1.4795    15.1345 </r>
       <r>    -5.1548     0.9061    15.2300 </r>
       <r>    -5.0493     0.9922    15.3347 </r>
       <r>    -4.9438     0.3676    15.3734 </r>
       <r>    -4.8384     0.1734    15.3917 </r>
       <r>    -4.7329     0.6137    15.4565 </r>
       <r>    -4.6274     0.5157    15.5108 </r>
       <r>    -4.5220     1.0106    15.6174 </r>
       <r>    -4.4165     1.0712    15.7304 </r>
       <r>    -4.3110     0.1815    15.7495 </r>
       <r>    -4.2056     0.0043    15.7500 </r>
       <r>    -4.1001     0.0000    15.7500 </r>
       <r>    -3.9946     0.0005    15.7500 </r>
       <r>    -3.8891     0.0358    15.7538 </r>
       <r>    -3.7837     0.3805    15.7939 </r>
       <r>    -3.6782     0.6104    15.8583 </r>
       <r>    -3.5727     0.1548    15.8747 </r>
       <r>    -3.4673     0.0979    15.8850 </r>
       <r>    -3.3618     0.5383    15.9418 </r>
       <r>    -3.2563     0.4842    15.9928 </r>
       <r>    -3.1509     0.0668    15.9999 </r>
       <r>    -3.0454     0.0013    16.0000 </r>
       <r>    -2.9399     0.0000    16.0000 </r>
       <r>    -2.8345     0.0000    16.0000 </r>
       <r>    -2.7290     0.0000    16.0000 </r>
       <r>    -2.6235     0.0000    16.0000 </r>
       <r>    -2.5181     0.0000    16.0000 </r>
       <r>    -2.4126     0.0000    16.0000 </r>
       <r>    -2.3071     0.0047    16.0005 </r>
       <r>    -2.2016     0.1407    16.0153 </r>
       <r>    -2.0962     0.6004    16.0787 </r>
       <r>    -1.9907     0.4019    16.1210 </r>
       <r>    -1.8852     0.1525    16.1371 </r>
       <r>    -1.7798     0.5695    16.1972 </r>
       <r>    -1.6743     0.4464    16.2443 </r>
       <r>    -1.5688     0.0534    16.2499 </r>
       <r>    -1.4634     0.0010    16.2500 </r>
       <r>    -1.3579     0.0205    16.2522 </r>
       <r>    -1.2524     0.5133    16.3063 </r>
       <r>    -1.1470     2.0318    16.5206 </r>
       <r>    -1.0415     1.9422    16.7254 </r>
       <r>    -0.9360     0.7483    16.8044 </r>
       <r>    -0.8305     0.0759    16.8124 </r>
       <r>    -0.7251     0.0028    16.8127 </r>
       <r>    -0.6196     0.1023    16.8235 </r>
       <r>    -0.5141     0.8785    16.9161 </r>
       <r>    -0.4087     1.1484    17.0372 </r>
       <r>    -0.3032     0.2329    17.0618 </r>
       <r>    -0.1977     0.0068    17.0625 </r>
       <r>    -0.0923     0.0218    17.0648 </r>
       <r>     0.0132     0.5330    17.1210 </r>
       <r>     0.1187     1.9458    17.3262 </r>
       <r>     0.2241     1.7818    17.5142 </r>
       <r>     0.3296     1.3173    17.6531 </r>
       <r>     0.4351     0.3894    17.6942 </r>
       <r>     0.5406     0.3138    17.7273 </r>
       <r>     0.6460     0.1971    17.7481 </r>
       <r>     0.7515     0.1073    17.7594 </r>
       <r>     0.8570     1.0636    17.8715 </r>
       <r>     0.9624     2.2075    18.1044 </r>
       <r>     1.0679     1.7068    18.2844 </r>
       <r>     1.1734     0.7973    18.3685 </r>
       <r>     1.2788     0.4032    18.4110 </r>
       <r>     1.3843     1.2278    18.5405 </r>
       <r>     1.4898     1.1976    18.6668 </r>
       <r>     1.5952     0.5040    18.7199 </r>
       <r>     1.7007     1.0194    18.8275 </r>
       <r>     1.8062     1.6268    18.9990 </r>
       <r>     1.9116     2.0098    19.2110 </r>
       <r>     2.0171     1.5727    19.3769 </r>
       <r>     2.1226     1.8412    19.5711 </r>
       <r>     2.2281     2.0301    19.7852 </r>
       <r>     2.3335     0.8742    19.8774 </r>
       <r>     2.4390     1.3886    20.0238 </r>
       <r>     2.5445     4.1909    20.4659 </r>
       <r>     2.6499     2.6204    20.7422 </r>
       <r>     2.7554     1.1035    20.8586 </r>
       <r>     2.8609     1.6464    21.0323 </r>
       <r>     2.9663     1.6271    21.2039 </r>
       <r>     3.0718     0.5105    21.2577 </r>
       <r>     3.1773     0.6344    21.3246 </r>
       <r>     3.2827     1.5249    21.4854 </r>
       <r>     3.3882     1.9501    21.6911 </r>
       <r>     3.4937     0.5479    21.7489 </r>
       <r>     3.5992     0.4496    21.7963 </r>
       <r>     3.7046     2.2405    22.0326 </r>
       <r>     3.8101     1.9644    22.2398 </r>
       <r>     3.9156     0.9750    22.3426 </r>
       <r>     4.0210     1.4320    22.4937 </r>
       <r>     4.1265     1.0788    22.6074 </r>
       <r>     4.2320     0.2000    22.6285 </r>
       <r>     4.3374     0.5688    22.6885 </r>
       <r>     4.4429     1.2874    22.8243 </r>
       <r>     4.5484     0.5346    22.8807 </r>
       <r>     4.6538     0.7679    22.9617 </r>
       <r>     4.7593     1.2008    23.0883 </r>
       <r>     4.8648     0.3331    23.1234 </r>
       <r>     4.9703     0.0200    23.1256 </r>
       <r>     5.0757     0.2313    23.1500 </r>
       <r>     5.1812     1.6165    23.3204 </r>
       <r>     5.2867     2.2265    23.5553 </r>
       <r>     5.3921     0.6293    23.6216 </r>
       <r>     5.4976     0.0316    23.6250 </r>
       <r>     5.6031     0.0002    23.6250 </r>
       <r>     5.7085     0.0000    23.6250 </r>
       <r>     5.8140     0.0000    23.6250 </r>
       <r>     5.9195     0.0000    23.6250 </r>
       <r>     6.0249     0.0020    23.6252 </r>
       <r>     6.1304     0.1172    23.6376 </r>
       <r>     6.2359     0.9245    23.7351 </r>
       <r>     6.3414     1.1383    23.8551 </r>
       <r>     6.4468     0.5310    23.9111 </r>
       <r>     6.5523     0.6395    23.9786 </r>
       <r>     6.6578     0.1943    23.9991 </r>
       <r>     6.7632     0.0086    24.0000 </r>
       <r>     6.8687     0.0000    24.0000 </r>
       <r>     6.9742     0.0000    24.0000 </r>
       <r>     7.0796     0.0000    24.0000 </r>
       <r>     7.1851     0.0000    24.0000 </r>
       <r>     7.2906     0.0000    24.0000 </r>
       <r>     7.3960     0.0000    24.0000 </r>
       <r>     7.5015     0.0000    24.0000 </r>
       <r>     7.6070     0.0000    24.0000 </r>
       <r>     7.7124     0.0000    24.0000 </r>
       <r>     7.8179     0.0000    24.0000 </r>
       <r>     7.9234     0.0000    24.0000 </r>
      </set>
     </set>
    </array>
   </total>
  </dos>
 </calculation>
 <structure name="finalpos" >
  <crystal>
   <varray name="basis" >
    <v>       4.26622041       0.00000000       0.00000000 </v>
    <v>       0.00000000       2.46518870       0.00000000 </v>
    <v>       0.00000000       0.00000000      20.00000000 </v>
   </varray>
   <i name="volume">    210.34076648 </i>
   <varray name="rec_basis" >
    <v>       0.23439952       0.00000000       0.00000000 </v>
    <v>       0.00000000       0.40564846       0.00000000 </v>
    <v>       0.00000000       0.00000000       0.05000000 </v>
   </varray>
  </crystal>
  <varray name="positions" >
   <v>       0.33334688       0.00000000       0.50000000 </v>
   <v>       0.66665312       0.00000000       0.50000000 </v>
   <v>       0.16665312       0.50000000       0.50000000 </v>
   <v>       0.83334688       0.50000000       0.50000000 </v>
  </varray>
 </structure>
</modeling>
