C                                       
           1
     4.260000    0.000000    0.000000
     0.000000    2.459512    0.000000
     0.000000    0.000000   20.000000
   C 
   4
Direct configuration=     1
   0.33333333  0.00000000  0.50000000
   0.66666667  0.00000000  0.50000000
   0.16666667  0.50000000  0.50000000
   0.83333333  0.50000000  0.50000000
C                                       
           1
     4.281475    0.000000    0.000000
     0.000000    2.478643    0.000000
     0.000000    0.000000   20.000000
   C 
   4
Direct configuration=     2
   0.33356599  0.00000000  0.50000000
   0.66643401  0.00000000  0.50000000
   0.16643401  0.50000000  0.50000000
   0.83356599  0.50000000  0.50000000
C                                       
           1
     4.266195    0.000000    0.000000
     0.000000    2.465031    0.000000
     0.000000    0.000000   20.000000
   C 
   4
Direct configuration=     3
   0.33340128  0.00000000  0.50000000
   0.66659872  0.00000000  0.50000000
   0.16659872  0.50000000  0.50000000
   0.83340128  0.50000000  0.50000000
C                                       
           1
     4.266308    0.000000    0.000000
     0.000000    2.465736    0.000000
     0.000000    0.000000   20.000000
   C 
   4
Direct configuration=     4
   0.33315783  0.00000000  0.50000000
   0.66684217  0.00000000  0.50000000
   0.16684217  0.50000000  0.50000000
   0.83315783  0.50000000  0.50000000
C                                       
           1
     4.266230    0.000000    0.000000
     0.000000    2.465247    0.000000
     0.000000    0.000000   20.000000
   C 
   4
Direct configuration=     5
   0.33332665  0.00000000  0.50000000
   0.66667335  0.00000000  0.50000000
   0.16667335  0.50000000  0.50000000
   0.83332665  0.50000000  0.50000000
C                                       
           1
     4.266220    0.000000    0.000000
     0.000000    2.465189    0.000000
     0.000000    0.000000   20.000000
   C 
   4
Direct configuration=     6
   0.33334688  0.00000000  0.50000000
   0.66665312  0.00000000  0.50000000
   0.16665312  0.50000000  0.50000000
   0.83334688  0.50000000  0.50000000
