ESCALE ; pCOHP file generated by LOBSTER. Energy is shifted such that the Fermi level lies at 0 eV.
         4          1        601  -9.63700e+00   2.04131e+01   5.38805e+00 
Average
No.1:Te1->Te2(2.8909987770316103)
No.2:Te1->Te3(2.8909987770275865)
No.3:Te2->Te3(2.8909987770275865)
-15.02504   0.00000   0.00000   0.00000   0.00000   0.00000   0.00000   0.00000   0.00000
-14.97496   0.00000   0.00000   0.00000   0.00000   0.00000   0.00000   0.00000   0.00000
-14.92487   0.00000   0.00000   0.00000   0.00000   0.00000   0.00000   0.00000   0.00000
-14.87479   0.00000   0.00000   0.00000   0.00000   0.00000   0.00000   0.00000   0.00000
-14.82471   0.00000   0.00000   0.00000   0.00000   0.00000   0.00000   0.00000   0.00000
-14.77462   0.00000   0.00000   0.00000   0.00000   0.00000   0.00000   0.00000   0.00000
-14.72454   0.00000   0.00000   0.00000   0.00000   0.00000   0.00000   0.00000   0.00000
-14.67446   0.00000   0.00000   0.00000   0.00000   0.00000   0.00000   0.00000   0.00000
-14.62437   0.00000   0.00000   0.00000   0.00000   0.00000   0.00000   0.00000   0.00000
-14.57429   0.00000   0.00000   0.00000   0.00000   0.00000   0.00000   0.00000   0.00000
-14.52421   0.00000   0.00000   0.00000   0.00000   0.00000   0.00000   0.00000   0.00000
-14.47412   0.00000   0.00000   0.00000   0.00000   0.00000   0.00000   0.00000   0.00000
-14.42404   0.00000   0.00000   0.00000   0.00000   0.00000   0.00000   0.00000   0.00000
-14.37396   0.00000   0.00000   0.00000   0.00000   0.00000   0.00000   0.00000   0.00000
-14.32387   0.00000   0.00000   0.00000   0.00000   0.00000   0.00000   0.00000   0.00000
-14.27379   0.00000   0.00000   0.00000   0.00000   0.00000   0.00000   0.00000   0.00000
-14.22371   0.00000   0.00000   0.00000   0.00000   0.00000   0.00000   0.00000   0.00000
-14.17362   0.00000   0.00000   0.00000   0.00000   0.00000   0.00000   0.00000   0.00000
-14.12354   0.00000   0.00000   0.00000   0.00000   0.00000   0.00000   0.00000   0.00000
-14.07346   0.00000   0.00000   0.00000   0.00000   0.00000   0.00000   0.00000   0.00000
-14.02337   0.00000   0.00000   0.00000   0.00000   0.00000   0.00000   0.00000   0.00000
-13.97329   0.00000   0.00000   0.00000   0.00000   0.00000   0.00000   0.00000   0.00000
-13.92321   0.00000   0.00000   0.00000   0.00000   0.00000   0.00000   0.00000   0.00000
-13.87312   0.00000   0.00000   0.00000   0.00000   0.00000   0.00000   0.00000   0.00000
-13.82304   0.00000   0.00000   0.00000   0.00000   0.00000   0.00000   0.00000   0.00000
-13.77295   0.00000   0.00000   0.00000   0.00000   0.00000   0.00000   0.00000   0.00000
-13.72287   0.00000   0.00000   0.00000   0.00000   0.00000   0.00000   0.00000   0.00000
-13.67279   0.00000   0.00000   0.00000   0.00000   0.00000   0.00000   0.00000   0.00000
-13.62270   0.00000   0.00000   0.00000   0.00000   0.00000   0.00000   0.00000   0.00000
-13.57262   0.00000   0.00000   0.00000   0.00000   0.00000   0.00000   0.00000   0.00000
-13.52254   0.00000   0.00000   0.00000   0.00000   0.00000   0.00000   0.00000   0.00000
-13.47245   0.00000   0.00000   0.00000   0.00000   0.00000   0.00000   0.00000   0.00000
-13.42237   0.00000   0.00000   0.00000   0.00000   0.00000   0.00000   0.00000   0.00000
-13.37229   0.00000   0.00000   0.00000   0.00000   0.00000   0.00000   0.00000   0.00000
-13.32220   0.00000   0.00000   0.00000   0.00000   0.00000   0.00000   0.00000   0.00000
-13.27212   0.00000   0.00000   0.00000   0.00000   0.00000   0.00000   0.00000   0.00000
-13.22204  -0.00005  -0.00000  -0.00005  -0.00000  -0.00005  -0.00000  -0.00005  -0.00000
-13.17195  -0.01070  -0.00054  -0.01087  -0.00055  -0.01062  -0.00053  -0.01062  -0.00053
-13.12187  -0.05596  -0.00334  -0.05684  -0.00339  -0.05552  -0.00331  -0.05552  -0.00331
-13.07179  -0.13081  -0.00989  -0.13236  -0.01002  -0.13004  -0.00983  -0.13004  -0.00983
-13.02170  -0.18194  -0.01900  -0.18335  -0.01921  -0.18124  -0.01890  -0.18124  -0.01890
-12.97162  -0.20828  -0.02944  -0.21010  -0.02973  -0.20737  -0.02929  -0.20737  -0.02929
-12.92154  -0.22798  -0.04085  -0.22999  -0.04125  -0.22698  -0.04066  -0.22698  -0.04066
-12.87145  -0.26393  -0.05407  -0.26530  -0.05453  -0.26324  -0.05384  -0.26324  -0.05384
-12.82137  -0.30172  -0.06918  -0.30254  -0.06969  -0.30131  -0.06893  -0.30131  -0.06893
-12.77129  -0.33868  -0.08615  -0.33912  -0.08667  -0.33846  -0.08588  -0.33846  -0.08588
-12.72120  -0.37368  -0.10486  -0.37397  -0.10540  -0.37353  -0.10459  -0.37353  -0.10459
-12.67112  -0.41013  -0.12540  -0.41054  -0.12596  -0.40992  -0.12512  -0.40992  -0.12512
-12.62104  -0.49266  -0.15008  -0.49152  -0.15058  -0.49323  -0.14983  -0.49323  -0.14983
-12.57095  -0.59258  -0.17975  -0.59006  -0.18013  -0.59384  -0.17957  -0.59384  -0.17957
-12.52087  -0.60362  -0.20999  -0.60054  -0.21021  -0.60516  -0.20988  -0.60516  -0.20988
-12.47078  -0.62391  -0.24123  -0.62079  -0.24130  -0.62546  -0.24120  -0.62546  -0.24120
-12.42070  -0.66403  -0.27449  -0.66135  -0.27442  -0.66537  -0.27452  -0.66537  -0.27452
-12.37062  -0.73691  -0.31140  -0.73508  -0.31124  -0.73782  -0.31148  -0.73782  -0.31148
-12.32053  -0.84958  -0.35395  -0.84879  -0.35375  -0.84997  -0.35405  -0.84997  -0.35405
-12.27045  -1.04530  -0.40630  -1.04442  -0.40606  -1.04574  -0.40642  -1.04574  -0.40642
-12.22037  -1.15319  -0.46405  -1.15117  -0.46371  -1.15419  -0.46423  -1.15419  -0.46423
-12.17028  -1.11553  -0.51992  -1.11410  -0.51951  -1.11625  -0.52013  -1.11625  -0.52013
-12.12020  -1.15981  -0.57801  -1.15974  -0.57759  -1.15985  -0.57822  -1.15985  -0.57822
-12.07012  -1.02894  -0.62954  -1.02916  -0.62914  -1.02883  -0.62975  -1.02883  -0.62975
-12.02003  -0.79332  -0.66928  -0.79628  -0.66902  -0.79184  -0.66941  -0.79184  -0.66941
-11.96995  -0.76823  -0.70775  -0.76891  -0.70753  -0.76790  -0.70787  -0.76790  -0.70787
-11.91987  -0.90402  -0.75303  -0.89682  -0.75244  -0.90761  -0.75332  -0.90761  -0.75332
-11.86978  -0.78797  -0.79249  -0.79616  -0.79232  -0.78388  -0.79258  -0.78388  -0.79258
-11.81970  -0.54412  -0.81974  -0.54678  -0.81970  -0.54279  -0.81977  -0.54279  -0.81977
-11.76962  -0.51451  -0.84551  -0.51193  -0.84534  -0.51580  -0.84560  -0.51580  -0.84560
-11.71953  -0.31882  -0.86148  -0.31521  -0.86113  -0.32063  -0.86166  -0.32063  -0.86166
-11.66945  -0.24288  -0.87365  -0.23874  -0.87308  -0.24495  -0.87393  -0.24495  -0.87393
-11.61937  -0.27119  -0.88723  -0.26605  -0.88641  -0.27376  -0.88764  -0.27376  -0.88764
-11.56928  -0.30724  -0.90261  -0.30210  -0.90154  -0.30981  -0.90315  -0.30981  -0.90315
-11.51920  -0.34619  -0.91995  -0.34165  -0.91865  -0.34845  -0.92061  -0.34846  -0.92060
-11.46912  -0.40032  -0.94000  -0.39614  -0.93849  -0.40240  -0.94076  -0.40240  -0.94076
-11.41903  -0.52455  -0.96627  -0.51497  -0.96428  -0.52933  -0.96727  -0.52933  -0.96727
-11.36895  -0.69656  -1.00116  -0.68415  -0.99855  -0.70276  -1.00247  -0.70276  -1.00247
-11.31886  -0.96554  -1.04952  -0.98762  -1.04801  -0.95451  -1.05027  -0.95451  -1.05027
-11.26878  -0.44185  -1.07165  -0.44191  -1.07014  -0.44182  -1.07240  -0.44182  -1.07240
-11.21870  -0.43613  -1.09349  -0.43745  -1.09205  -0.43546  -1.09421  -0.43546  -1.09421
-11.16861  -0.43062  -1.11506  -0.43315  -1.11374  -0.42935  -1.11571  -0.42935  -1.11571
-11.11853  -0.42532  -1.13636  -0.42901  -1.13523  -0.42347  -1.13692  -0.42348  -1.13692
-11.06845  -0.41954  -1.15737  -0.42431  -1.15648  -0.41702  -1.15781  -0.41730  -1.15782
-11.01836  -0.41017  -1.17791  -0.41584  -1.17731  -0.40651  -1.17817  -0.40816  -1.17826
-10.96828  -0.40282  -1.19809  -0.40660  -1.19767  -0.39995  -1.19820  -0.40190  -1.19839
-10.91820  -0.40741  -1.21849  -0.40364  -1.21789  -0.40823  -1.21864  -0.41036  -1.21894
-10.86811  -0.42913  -1.23998  -0.42160  -1.23900  -0.43174  -1.24027  -0.43406  -1.24068
-10.81803  -0.47255  -1.26365  -0.46834  -1.26246  -0.47340  -1.26397  -0.47590  -1.26452
-10.76795  -0.45394  -1.28639  -0.45215  -1.28510  -0.45349  -1.28669  -0.45618  -1.28736
-10.71786  -0.43548  -1.30820  -0.43768  -1.30702  -0.43294  -1.30837  -0.43582  -1.30919
-10.66778  -0.38119  -1.32729  -0.38415  -1.32626  -0.37819  -1.32731  -0.38125  -1.32829
-10.61770  -0.32593  -1.34361  -0.32854  -1.34272  -0.32300  -1.34349  -0.32625  -1.34463
-10.56761  -0.27601  -1.35743  -0.27904  -1.35669  -0.27278  -1.35715  -0.27621  -1.35846
-10.51753  -0.21840  -1.36837  -0.22178  -1.36780  -0.21490  -1.36791  -0.21852  -1.36940
-10.46745  -0.15616  -1.37619  -0.16090  -1.37586  -0.15188  -1.37552  -0.15568  -1.37720
-10.41736  -0.12434  -1.38242  -0.12889  -1.38232  -0.12007  -1.38153  -0.12405  -1.38341
-10.36728  -0.10338  -1.38760  -0.10733  -1.38769  -0.09932  -1.38651  -0.10349  -1.38860
-10.31720  -0.08388  -1.39180  -0.08741  -1.39207  -0.07994  -1.39051  -0.08429  -1.39282
-10.26711  -0.06680  -1.39515  -0.07012  -1.39558  -0.06287  -1.39366  -0.06741  -1.39620
-10.21703  -0.06162  -1.39823  -0.06528  -1.39885  -0.05743  -1.39654  -0.06216  -1.39931
-10.16694  -0.05792  -1.40113  -0.06148  -1.40193  -0.05369  -1.39923  -0.05860  -1.40224
-10.11686  -0.05750  -1.40401  -0.06230  -1.40505  -0.05256  -1.40186  -0.05765  -1.40513
-10.06678  -0.05830  -1.40693  -0.06478  -1.40829  -0.05410  -1.40457  -0.05601  -1.40794
-10.01669  -0.08983  -1.41143  -0.09351  -1.41298  -0.08952  -1.40905  -0.08647  -1.41227
 -9.96661  -0.18394  -1.42064  -0.17922  -1.42195  -0.18887  -1.41851  -0.18373  -1.42147
 -9.91653  -0.23193  -1.43226  -0.23190  -1.43357  -0.23442  -1.43025  -0.22947  -1.43296
 -9.86644  -0.22511  -1.44353  -0.20548  -1.44386  -0.23730  -1.44214  -0.23254  -1.44461
 -9.81636  -0.17390  -1.45224  -0.16203  -1.45197  -0.18212  -1.45126  -0.17755  -1.45350
 -9.76628  -0.14280  -1.45939  -0.12982  -1.45847  -0.15148  -1.45884  -0.14710  -1.46087
 -9.71619  -0.11959  -1.46538  -0.10574  -1.46377  -0.12861  -1.46528  -0.12443  -1.46710
 -9.66611  -0.09709  -1.47025  -0.08462  -1.46801  -0.10532  -1.47056  -0.10132  -1.47217
 -9.61603  -0.07983  -1.47425  -0.07171  -1.47160  -0.08579  -1.47486  -0.08199  -1.47628
 -9.56594  -0.06730  -1.47762  -0.06141  -1.47468  -0.07205  -1.47847  -0.06844  -1.47971
 -9.51586  -0.05687  -1.48046  -0.05163  -1.47726  -0.06120  -1.48153  -0.05778  -1.48260
 -9.46578  -0.04723  -1.48283  -0.04339  -1.47943  -0.05077  -1.48407  -0.04754  -1.48498
 -9.41569  -0.03812  -1.48474  -0.03614  -1.48124  -0.04062  -1.48611  -0.03758  -1.48686
 -9.36561  -0.03001  -1.48624  -0.03179  -1.48284  -0.03054  -1.48764  -0.02770  -1.48825
 -9.31553  -0.02371  -1.48743  -0.02667  -1.48417  -0.02356  -1.48882  -0.02091  -1.48930
 -9.26544  -0.01872  -1.48837  -0.02080  -1.48521  -0.01891  -1.48976  -0.01645  -1.49012
 -9.21536  -0.01390  -1.48906  -0.01545  -1.48599  -0.01425  -1.49048  -0.01199  -1.49072
 -9.16528  -0.00924  -1.48953  -0.01063  -1.48652  -0.00958  -1.49096  -0.00751  -1.49110
 -9.11519  -0.00462  -1.48976  -0.00625  -1.48683  -0.00471  -1.49119  -0.00291  -1.49124
 -9.06511   0.00095  -1.48971  -0.00158  -1.48691   0.00178  -1.49110   0.00265  -1.49111
 -9.01503   0.00592  -1.48941   0.00218  -1.48680   0.00772  -1.49072   0.00787  -1.49072
 -8.96494   0.00939  -1.48894   0.00471  -1.48657   0.01173  -1.49013   0.01173  -1.49013
 -8.91486   0.01192  -1.48835   0.00727  -1.48620   0.01425  -1.48942   0.01425  -1.48942
 -8.86477   0.01334  -1.48768   0.00917  -1.48574   0.01543  -1.48864   0.01543  -1.48864
 -8.81469   0.01374  -1.48699   0.00956  -1.48527   0.01583  -1.48785   0.01583  -1.48785
 -8.76461   0.01403  -1.48629   0.00986  -1.48477   0.01611  -1.48704   0.01611  -1.48704
 -8.71452   0.01422  -1.48557   0.01008  -1.48427   0.01629  -1.48623   0.01629  -1.48623
 -8.66444   0.01431  -1.48486   0.01023  -1.48375   0.01636  -1.48541   0.01636  -1.48541
 -8.61436   0.01431  -1.48414   0.01030  -1.48324   0.01632  -1.48459   0.01632  -1.48459
 -8.56427   0.01421  -1.48343   0.01030  -1.48272   0.01617  -1.48378   0.01617  -1.48378
 -8.51419   0.01401  -1.48273   0.01021  -1.48221   0.01591  -1.48299   0.01591  -1.48299
 -8.46411   0.01949  -1.48175   0.01619  -1.48140   0.02114  -1.48193   0.02114  -1.48193
 -8.41402   0.01914  -1.48079   0.01657  -1.48057   0.02042  -1.48090   0.02042  -1.48090
 -8.36394   0.01364  -1.48011   0.01150  -1.47999   0.01471  -1.48017   0.01471  -1.48017
 -8.31386   0.00846  -1.47969   0.00693  -1.47965   0.00922  -1.47970   0.00922  -1.47971
 -8.26377   0.00359  -1.47951   0.00285  -1.47950   0.00396  -1.47951   0.00396  -1.47951
 -8.21369   0.00018  -1.47950   0.00014  -1.47950   0.00020  -1.47950   0.00020  -1.47950
 -8.16361   0.00000  -1.47950   0.00000  -1.47950   0.00000  -1.47950   0.00000  -1.47950
 -8.11352   0.00000  -1.47950   0.00000  -1.47950   0.00000  -1.47950   0.00000  -1.47950
 -8.06344   0.00000  -1.47950   0.00000  -1.47950   0.00000  -1.47950   0.00000  -1.47950
 -8.01336   0.00000  -1.47950   0.00000  -1.47950   0.00000  -1.47950   0.00000  -1.47950
 -7.96327   0.00000  -1.47950   0.00000  -1.47950   0.00000  -1.47950   0.00000  -1.47950
 -7.91319   0.00000  -1.47950   0.00000  -1.47950   0.00000  -1.47950   0.00000  -1.47950
 -7.86311   0.00000  -1.47950   0.00000  -1.47950   0.00000  -1.47950   0.00000  -1.47950
 -7.81302   0.00000  -1.47950   0.00000  -1.47950   0.00000  -1.47950   0.00000  -1.47950
 -7.76294   0.00000  -1.47950   0.00000  -1.47950   0.00000  -1.47950   0.00000  -1.47950
 -7.71285   0.00000  -1.47950   0.00000  -1.47950   0.00000  -1.47950   0.00000  -1.47950
 -7.66277   0.00000  -1.47950   0.00000  -1.47950   0.00000  -1.47950   0.00000  -1.47950
 -7.61269   0.00000  -1.47950   0.00000  -1.47950   0.00000  -1.47950   0.00000  -1.47950
 -7.56260   0.00000  -1.47950   0.00000  -1.47950   0.00000  -1.47950   0.00000  -1.47950
 -7.51252   0.00000  -1.47950   0.00000  -1.47950   0.00000  -1.47950   0.00000  -1.47950
 -7.46244   0.00000  -1.47950   0.00000  -1.47950   0.00000  -1.47950   0.00000  -1.47950
 -7.41235   0.00000  -1.47950   0.00000  -1.47950   0.00000  -1.47950   0.00000  -1.47950
 -7.36227   0.00000  -1.47950   0.00000  -1.47950   0.00000  -1.47950   0.00000  -1.47950
 -7.31219   0.00000  -1.47950   0.00000  -1.47950   0.00000  -1.47950   0.00000  -1.47950
 -7.26210   0.00000  -1.47950   0.00000  -1.47950   0.00000  -1.47950   0.00000  -1.47950
 -7.21202   0.00000  -1.47950   0.00000  -1.47950   0.00000  -1.47950   0.00000  -1.47950
 -7.16194   0.00000  -1.47950   0.00000  -1.47950   0.00000  -1.47950   0.00000  -1.47950
 -7.11185   0.00000  -1.47950   0.00000  -1.47950   0.00000  -1.47950   0.00000  -1.47950
 -7.06177   0.00000  -1.47950   0.00000  -1.47950   0.00000  -1.47950   0.00000  -1.47950
 -7.01169   0.00000  -1.47950   0.00000  -1.47950   0.00000  -1.47950   0.00000  -1.47950
 -6.96160   0.00000  -1.47950   0.00000  -1.47950   0.00000  -1.47950   0.00000  -1.47950
 -6.91152   0.00000  -1.47950   0.00000  -1.47950   0.00000  -1.47950   0.00000  -1.47950
 -6.86144   0.00000  -1.47950   0.00000  -1.47950   0.00000  -1.47950   0.00000  -1.47950
 -6.81135   0.00000  -1.47950   0.00000  -1.47950   0.00000  -1.47950   0.00000  -1.47950
 -6.76127   0.00000  -1.47950   0.00000  -1.47950   0.00000  -1.47950   0.00000  -1.47950
 -6.71119   0.00000  -1.47950   0.00000  -1.47950   0.00000  -1.47950   0.00000  -1.47950
 -6.66110   0.00000  -1.47950   0.00000  -1.47950   0.00000  -1.47950   0.00000  -1.47950
 -6.61102   0.00000  -1.47950   0.00000  -1.47950   0.00000  -1.47950   0.00000  -1.47950
 -6.56093   0.00000  -1.47950   0.00000  -1.47950   0.00000  -1.47950   0.00000  -1.47950
 -6.51085   0.00000  -1.47950   0.00000  -1.47950   0.00000  -1.47950   0.00000  -1.47950
 -6.46077   0.00000  -1.47950   0.00000  -1.47950   0.00000  -1.47950   0.00000  -1.47950
 -6.41068   0.00000  -1.47950   0.00000  -1.47950   0.00000  -1.47950   0.00000  -1.47950
 -6.36060   0.00000  -1.47950   0.00000  -1.47950   0.00000  -1.47950   0.00000  -1.47950
 -6.31052   0.00000  -1.47950   0.00000  -1.47950   0.00000  -1.47950   0.00000  -1.47950
 -6.26043   0.00000  -1.47950   0.00000  -1.47950   0.00000  -1.47950   0.00000  -1.47950
 -6.21035   0.00000  -1.47950   0.00000  -1.47950   0.00000  -1.47950   0.00000  -1.47950
 -6.16027   0.00000  -1.47950   0.00000  -1.47950   0.00000  -1.47950   0.00000  -1.47950
 -6.11018   0.00000  -1.47950   0.00000  -1.47950   0.00000  -1.47950   0.00000  -1.47950
 -6.06010   0.00000  -1.47950   0.00000  -1.47950   0.00000  -1.47950   0.00000  -1.47950
 -6.01002   0.00000  -1.47950   0.00000  -1.47950   0.00000  -1.47950   0.00000  -1.47950
 -5.95993   0.00000  -1.47950   0.00000  -1.47950   0.00000  -1.47950   0.00000  -1.47950
 -5.90985   0.00000  -1.47950   0.00000  -1.47950   0.00000  -1.47950   0.00000  -1.47950
 -5.85977   0.00000  -1.47950   0.00000  -1.47950   0.00000  -1.47950   0.00000  -1.47950
 -5.80968   0.00000  -1.47950   0.00000  -1.47950   0.00000  -1.47950   0.00000  -1.47950
 -5.75960   0.00000  -1.47950   0.00000  -1.47950   0.00000  -1.47950   0.00000  -1.47950
 -5.70952   0.00000  -1.47950   0.00000  -1.47950   0.00000  -1.47950   0.00000  -1.47950
 -5.65943   0.00000  -1.47950   0.00000  -1.47950   0.00000  -1.47950   0.00000  -1.47950
 -5.60935   0.00000  -1.47950   0.00000  -1.47950   0.00000  -1.47950   0.00000  -1.47950
 -5.55927   0.00000  -1.47950   0.00000  -1.47950   0.00000  -1.47950   0.00000  -1.47950
 -5.50918   0.00000  -1.47950   0.00000  -1.47950   0.00000  -1.47950   0.00000  -1.47950
 -5.45910   0.00000  -1.47950   0.00000  -1.47950   0.00000  -1.47950   0.00000  -1.47950
 -5.40902   0.00000  -1.47950   0.00000  -1.47950   0.00000  -1.47950   0.00000  -1.47950
 -5.35893   0.00000  -1.47950   0.00000  -1.47950   0.00000  -1.47950   0.00000  -1.47950
 -5.30885   0.00000  -1.47950   0.00000  -1.47950   0.00000  -1.47950   0.00000  -1.47950
 -5.25876   0.00000  -1.47950   0.00000  -1.47950   0.00000  -1.47950   0.00000  -1.47950
 -5.20868   0.00000  -1.47950   0.00000  -1.47950   0.00000  -1.47950   0.00000  -1.47950
 -5.15860  -0.03441  -1.48122  -0.02521  -1.48076  -0.03901  -1.48145  -0.03901  -1.48145
 -5.10851  -0.13489  -1.48798  -0.11488  -1.48651  -0.14489  -1.48871  -0.14489  -1.48871
 -5.05843  -0.22243  -1.49912  -0.22210  -1.49764  -0.22259  -1.49986  -0.22259  -1.49986
 -5.00835  -0.25278  -1.51178  -0.24182  -1.50975  -0.25826  -1.51279  -0.25826  -1.51279
 -4.95826  -0.30850  -1.52723  -0.29510  -1.52453  -0.31520  -1.52858  -0.31520  -1.52858
 -4.90818  -0.38094  -1.54631  -0.36865  -1.54299  -0.38708  -1.54796  -0.38708  -1.54796
 -4.85810  -0.53254  -1.57298  -0.52113  -1.56909  -0.53824  -1.57492  -0.53824  -1.57492
 -4.80801  -0.55496  -1.60077  -0.57016  -1.59765  -0.54736  -1.60233  -0.54736  -1.60233
 -4.75793  -0.60043  -1.63084  -0.61659  -1.62853  -0.59234  -1.63200  -0.59234  -1.63200
 -4.70785  -0.61941  -1.66186  -0.62659  -1.65991  -0.61582  -1.66284  -0.61582  -1.66284
 -4.65776  -0.55298  -1.68956  -0.54379  -1.68714  -0.55757  -1.69077  -0.55757  -1.69077
 -4.60768  -0.55819  -1.71752  -0.55289  -1.71483  -0.56083  -1.71886  -0.56083  -1.71886
 -4.55760  -0.68248  -1.75170  -0.67762  -1.74877  -0.68491  -1.75316  -0.68491  -1.75316
 -4.50751  -0.70348  -1.78693  -0.69241  -1.78345  -0.70902  -1.78867  -0.70902  -1.78867
 -4.45743  -0.78511  -1.82625  -0.77784  -1.82241  -0.78874  -1.82817  -0.78874  -1.82817
 -4.40735  -0.90723  -1.87169  -0.91721  -1.86834  -0.90223  -1.87336  -0.90223  -1.87336
 -4.35726  -0.71932  -1.90771  -0.73262  -1.90504  -0.71267  -1.90905  -0.71267  -1.90905
 -4.30718  -0.63945  -1.93974  -0.63968  -1.93707  -0.63933  -1.94107  -0.63933  -1.94107
 -4.25710  -0.69292  -1.97444  -0.69085  -1.97167  -0.69396  -1.97583  -0.69396  -1.97583
 -4.20701  -1.19753  -2.03442  -1.20007  -2.03178  -1.19626  -2.03574  -1.19626  -2.03574
 -4.15693  -1.41914  -2.10549  -1.42481  -2.10314  -1.41630  -2.10667  -1.41630  -2.10667
 -4.10684  -1.30468  -2.17084  -1.29024  -2.16776  -1.31190  -2.17238  -1.31190  -2.17238
 -4.05676  -1.04617  -2.22323  -1.03008  -2.21935  -1.05422  -2.22518  -1.05422  -2.22518
 -4.00668  -0.83349  -2.26498  -0.83693  -2.26126  -0.83177  -2.26683  -0.83177  -2.26683
 -3.95659  -0.75461  -2.30277  -0.77185  -2.29992  -0.74599  -2.30420  -0.74599  -2.30420
 -3.90651  -0.72565  -2.33911  -0.74527  -2.33725  -0.71584  -2.34005  -0.71584  -2.34005
 -3.85643  -0.69528  -2.37394  -0.71589  -2.37310  -0.68498  -2.37435  -0.68498  -2.37435
 -3.80634  -0.66095  -2.40704  -0.68093  -2.40720  -0.65096  -2.40696  -0.65096  -2.40696
 -3.75626  -0.62317  -2.43825  -0.64060  -2.43929  -0.61446  -2.43773  -0.61446  -2.43773
 -3.70618  -0.58825  -2.46771  -0.60209  -2.46944  -0.58133  -2.46685  -0.58133  -2.46685
 -3.65609  -0.57832  -2.49668  -0.58618  -2.49880  -0.57438  -2.49561  -0.57438  -2.49561
 -3.60601  -0.55115  -2.52428  -0.55140  -2.52641  -0.55103  -2.52321  -0.55103  -2.52321
 -3.55593  -0.48069  -2.54835  -0.48000  -2.55045  -0.48103  -2.54730  -0.48103  -2.54730
 -3.50584  -0.39929  -2.56835  -0.40272  -2.57062  -0.39758  -2.56721  -0.39758  -2.56721
 -3.45576  -0.39036  -2.58790  -0.39240  -2.59028  -0.38935  -2.58671  -0.38935  -2.58671
 -3.40568  -0.39114  -2.60749  -0.39272  -2.60995  -0.39033  -2.60626  -0.39035  -2.60627
 -3.35559  -0.41700  -2.62838  -0.42507  -2.63123  -0.41291  -2.62694  -0.41302  -2.62695
 -3.30551  -0.48567  -2.65270  -0.50190  -2.65637  -0.47741  -2.65085  -0.47770  -2.65088
 -3.25543  -0.53718  -2.67960  -0.53416  -2.68312  -0.53841  -2.67782  -0.53897  -2.67787
 -3.20534  -0.48584  -2.70394  -0.47688  -2.70701  -0.48986  -2.70235  -0.49078  -2.70245
 -3.15526  -0.40534  -2.72424  -0.39898  -2.72699  -0.40783  -2.72278  -0.40919  -2.72294
 -3.10518  -0.36619  -2.74258  -0.36212  -2.74513  -0.36728  -2.74117  -0.36918  -2.74143
 -3.05509  -0.32860  -2.75903  -0.30480  -2.76039  -0.33904  -2.75815  -0.34195  -2.75856
 -3.00501  -0.27584  -2.77285  -0.26138  -2.77348  -0.28119  -2.77224  -0.28495  -2.77283
 -2.95492  -0.24444  -2.78509  -0.23715  -2.78536  -0.24609  -2.78456  -0.25008  -2.78535
 -2.90484  -0.22016  -2.79612  -0.21585  -2.79617  -0.22045  -2.79560  -0.22419  -2.79658
 -2.85476  -0.19612  -2.80594  -0.19310  -2.80584  -0.19598  -2.80542  -0.19928  -2.80656
 -2.80467  -0.18048  -2.81498  -0.17535  -2.81462  -0.18169  -2.81452  -0.18440  -2.81580
 -2.75459  -0.19557  -2.82477  -0.20622  -2.82495  -0.19043  -2.82406  -0.19004  -2.82532
 -2.70451  -0.15478  -2.83253  -0.17544  -2.83374  -0.14659  -2.83140  -0.14231  -2.83244
 -2.65442  -0.09963  -2.83752  -0.11972  -2.83973  -0.09270  -2.83604  -0.08646  -2.83677
 -2.60434  -0.03598  -2.83932  -0.07709  -2.84360  -0.01839  -2.83696  -0.01244  -2.83740
 -2.55426  -0.02100  -2.84037  -0.04292  -2.84575  -0.01201  -2.83756  -0.00807  -2.83780
 -2.50417  -0.01049  -2.84090  -0.01693  -2.84659  -0.00851  -2.83799  -0.00602  -2.83810
 -2.45409   0.00428  -2.84068   0.00790  -2.84620   0.00176  -2.83790   0.00318  -2.83794
 -2.40401   0.02711  -2.83932   0.03401  -2.84449   0.02333  -2.83673   0.02398  -2.83674
 -2.35392   0.05051  -2.83679   0.05446  -2.84177   0.04844  -2.83431   0.04863  -2.83431
 -2.30384   0.06357  -2.83361   0.06175  -2.83867   0.06448  -2.83108   0.06449  -2.83108
 -2.25376   0.06638  -2.83028   0.05702  -2.83582   0.07107  -2.82752   0.07107  -2.82752
 -2.20367   0.07142  -2.82671   0.05943  -2.83284   0.07742  -2.82364   0.07742  -2.82364
 -2.15359   0.08261  -2.82257   0.07095  -2.82929   0.08844  -2.81921   0.08844  -2.81921
 -2.10351   0.09525  -2.81780   0.08357  -2.82510   0.10109  -2.81415   0.10109  -2.81415
 -2.05342   0.14572  -2.81050   0.13415  -2.81838   0.15151  -2.80656   0.15151  -2.80656
 -2.00334   0.23228  -2.79887   0.23928  -2.80640   0.22878  -2.79510   0.22878  -2.79510
 -1.95326   0.27424  -2.78513   0.29454  -2.79165   0.26409  -2.78187   0.26409  -2.78188
 -1.90317   0.25358  -2.77243   0.28065  -2.77759   0.24005  -2.76985   0.24005  -2.76985
 -1.85309   0.21641  -2.76159   0.23936  -2.76560   0.20494  -2.75959   0.20494  -2.75959
 -1.80301   0.17960  -2.75260   0.19551  -2.75581   0.17164  -2.75099   0.17164  -2.75099
 -1.75292   0.17360  -2.74390   0.18779  -2.74641   0.16650  -2.74265   0.16650  -2.74265
 -1.70284   0.17947  -2.73492   0.18673  -2.73706   0.17585  -2.73385   0.17585  -2.73385
 -1.65275   0.18838  -2.72548   0.19191  -2.72744   0.18662  -2.72450   0.18662  -2.72450
 -1.60267   0.19903  -2.71551   0.19849  -2.71750   0.19930  -2.71452   0.19930  -2.71452
 -1.55259   0.20266  -2.70536   0.20151  -2.70741   0.20324  -2.70434   0.20324  -2.70434
 -1.50250   0.19716  -2.69549   0.20220  -2.69728   0.19464  -2.69459   0.19464  -2.69459
 -1.45242   0.20276  -2.68533   0.21182  -2.68668   0.19810  -2.68467   0.19837  -2.68466
 -1.40234   0.21367  -2.67463   0.22628  -2.67534   0.20684  -2.67431   0.20791  -2.67424
 -1.35225   0.22520  -2.66335   0.24264  -2.66319   0.21569  -2.66351   0.21729  -2.66336
 -1.30217   0.21566  -2.65255   0.23154  -2.65159   0.20685  -2.65315   0.20861  -2.65291
 -1.25209   0.21881  -2.64159   0.23559  -2.63979   0.20963  -2.64265   0.21120  -2.64234
 -1.20200   0.22219  -2.63046   0.24020  -2.62776   0.21262  -2.63200   0.21376  -2.63163
 -1.15192   0.21744  -2.61957   0.23634  -2.61593   0.20777  -2.62159   0.20822  -2.62120
 -1.10184   0.19907  -2.60960   0.20915  -2.60545   0.19427  -2.61187   0.19380  -2.61149
 -1.05175   0.21105  -2.59903   0.21812  -2.59453   0.20809  -2.60144   0.20694  -2.60113
 -1.00167   0.22590  -2.58772   0.22590  -2.58322   0.22666  -2.59009   0.22514  -2.58985
 -0.95159   0.23255  -2.57607   0.22595  -2.57190   0.23666  -2.57824   0.23506  -2.57808
 -0.90150   0.22946  -2.56458   0.21963  -2.56090   0.23507  -2.56647   0.23367  -2.56638
 -0.85142   0.22999  -2.55306   0.21574  -2.55009   0.23766  -2.55456   0.23656  -2.55453
 -0.80134   0.23515  -2.54129   0.22441  -2.53885   0.24083  -2.54250   0.24020  -2.54250
 -0.75125   0.21772  -2.53038   0.21763  -2.52796   0.21777  -2.53159   0.21777  -2.53159
 -0.70117   0.21753  -2.51949   0.21618  -2.51713   0.21821  -2.52067   0.21820  -2.52067
 -0.65109   0.21638  -2.50865   0.21234  -2.50649   0.21839  -2.50973   0.21839  -2.50973
 -0.60100   0.21346  -2.49796   0.20662  -2.49615   0.21689  -2.49887   0.21688  -2.49887
 -0.55092   0.20534  -2.48767   0.19980  -2.48614   0.20812  -2.48844   0.20811  -2.48844
 -0.50083   0.19477  -2.47792   0.19091  -2.47658   0.19669  -2.47859   0.19669  -2.47859
 -0.45075   0.18327  -2.46874   0.18020  -2.46755   0.18480  -2.46934   0.18480  -2.46934
 -0.40067   0.18317  -2.45957   0.17748  -2.45866   0.18602  -2.46002   0.18602  -2.46002
 -0.35058   0.14427  -2.45234   0.13957  -2.45167   0.14662  -2.45268   0.14662  -2.45268
 -0.30050   0.13105  -2.44578   0.12663  -2.44533   0.13326  -2.44600   0.13326  -2.44600
 -0.25042   0.11785  -2.43988   0.11394  -2.43962   0.11980  -2.44000   0.11980  -2.44000
 -0.20033   0.10031  -2.43485   0.09680  -2.43478   0.10207  -2.43489   0.10207  -2.43489
 -0.15025   0.07788  -2.43095   0.07461  -2.43104   0.07951  -2.43091   0.07951  -2.43091
 -0.10017   0.05103  -2.42840   0.04829  -2.42862   0.05239  -2.42828   0.05239  -2.42828
 -0.05008   0.03156  -2.42682   0.03059  -2.42709   0.03205  -2.42668   0.03205  -2.42668
  0.00000   0.03620  -2.42500   0.04166  -2.42500   0.03347  -2.42500   0.03347  -2.42500
  0.05008   0.00000  -2.42500   0.00000  -2.42500   0.00000  -2.42500   0.00000  -2.42500
  0.10017   0.00000  -2.42500   0.00000  -2.42500   0.00000  -2.42500   0.00000  -2.42500
  0.15025   0.00000  -2.42500   0.00000  -2.42500   0.00000  -2.42500   0.00000  -2.42500
  0.20033   0.00000  -2.42500   0.00000  -2.42500   0.00000  -2.42500   0.00000  -2.42500
  0.25042   0.00000  -2.42500   0.00000  -2.42500   0.00000  -2.42500   0.00000  -2.42500
  0.30050   0.00000  -2.42500   0.00000  -2.42500   0.00000  -2.42500   0.00000  -2.42500
  0.35058   0.00000  -2.42500   0.00000  -2.42500   0.00000  -2.42500   0.00000  -2.42500
  0.40067   0.00000  -2.42500   0.00000  -2.42500   0.00000  -2.42500   0.00000  -2.42500
  0.45075   0.00000  -2.42500   0.00000  -2.42500   0.00000  -2.42500   0.00000  -2.42500
  0.50083   0.00000  -2.42500   0.00000  -2.42500   0.00000  -2.42500   0.00000  -2.42500
  0.55092   0.00000  -2.42500   0.00000  -2.42500   0.00000  -2.42500   0.00000  -2.42500
  0.60100   0.00000  -2.42500   0.00000  -2.42500   0.00000  -2.42500   0.00000  -2.42500
  0.65109   0.00403  -2.42480   0.00372  -2.42482   0.00419  -2.42479   0.00419  -2.42479
  0.70117   0.01646  -2.42398   0.01500  -2.42407   0.01719  -2.42393   0.01719  -2.42393
  0.75125   0.03859  -2.42204   0.03480  -2.42232   0.04048  -2.42190   0.04048  -2.42190
  0.80134   0.16344  -2.41386   0.13169  -2.41573   0.17943  -2.41292   0.17920  -2.41293
  0.85142   0.41458  -2.39309   0.34366  -2.39852   0.45288  -2.39024   0.44720  -2.39053
  0.90150   0.91449  -2.34729   0.76471  -2.36022   0.99999  -2.34015   0.97876  -2.34151
  0.95159   1.27723  -2.28333   1.13835  -2.30320   1.35685  -2.27220   1.33649  -2.27458
  1.00167   1.46682  -2.20986   1.38544  -2.23382   1.51057  -2.19654   1.50443  -2.19923
  1.05175   1.68602  -2.12542   1.62689  -2.15234   1.70973  -2.11091   1.72145  -2.11301
  1.10184   1.83707  -2.03341   1.76526  -2.06393   1.86375  -2.01757   1.88220  -2.01875
  1.15192   1.81016  -1.94276   1.72478  -1.97754   1.84774  -1.92503   1.85796  -1.92569
  1.20200   1.59228  -1.86301   1.55074  -1.89988   1.60929  -1.84443   1.61680  -1.84472
  1.25209   1.42743  -1.79152   1.45991  -1.82676   1.40902  -1.77386   1.41337  -1.77393
  1.30217   1.29562  -1.72663   1.37206  -1.75804   1.25675  -1.71092   1.25804  -1.71092
  1.35225   1.18344  -1.66736   1.28025  -1.69392   1.13500  -1.65407   1.13508  -1.65408
  1.40234   1.09285  -1.61262   1.19439  -1.63410   1.04208  -1.60188   1.04208  -1.60188
  1.45242   1.03408  -1.56083   1.12632  -1.57769   0.98796  -1.55240   0.98796  -1.55240