ESCALE ; pCOOP file generated by LOBSTER. Energy is shifted such that the Fermi level lies at 0 eV.
         4          1        601  -9.63700e+00   2.04131e+01   5.38805e+00 
Average
No.1:Te1->Te2(2.8909987770316103)
No.2:Te1->Te3(2.8909987770275865)
No.3:Te2->Te3(2.8909987770275865)
-15.02504   0.00000   0.00000   0.00000   0.00000   0.00000   0.00000   0.00000   0.00000
-14.97496   0.00000   0.00000   0.00000   0.00000   0.00000   0.00000   0.00000   0.00000
-14.92487   0.00000   0.00000   0.00000   0.00000   0.00000   0.00000   0.00000   0.00000
-14.87479   0.00000   0.00000   0.00000   0.00000   0.00000   0.00000   0.00000   0.00000
-14.82471   0.00000   0.00000   0.00000   0.00000   0.00000   0.00000   0.00000   0.00000
-14.77462   0.00000   0.00000   0.00000   0.00000   0.00000   0.00000   0.00000   0.00000
-14.72454   0.00000   0.00000   0.00000   0.00000   0.00000   0.00000   0.00000   0.00000
-14.67446   0.00000   0.00000   0.00000   0.00000   0.00000   0.00000   0.00000   0.00000
-14.62437   0.00000   0.00000   0.00000   0.00000   0.00000   0.00000   0.00000   0.00000
-14.57429   0.00000   0.00000   0.00000   0.00000   0.00000   0.00000   0.00000   0.00000
-14.52421   0.00000   0.00000   0.00000   0.00000   0.00000   0.00000   0.00000   0.00000
-14.47412   0.00000   0.00000   0.00000   0.00000   0.00000   0.00000   0.00000   0.00000
-14.42404   0.00000   0.00000   0.00000   0.00000   0.00000   0.00000   0.00000   0.00000
-14.37396   0.00000   0.00000   0.00000   0.00000   0.00000   0.00000   0.00000   0.00000
-14.32387   0.00000   0.00000   0.00000   0.00000   0.00000   0.00000   0.00000   0.00000
-14.27379   0.00000   0.00000   0.00000   0.00000   0.00000   0.00000   0.00000   0.00000
-14.22371   0.00000   0.00000   0.00000   0.00000   0.00000   0.00000   0.00000   0.00000
-14.17362   0.00000   0.00000   0.00000   0.00000   0.00000   0.00000   0.00000   0.00000
-14.12354   0.00000   0.00000   0.00000   0.00000   0.00000   0.00000   0.00000   0.00000
-14.07346   0.00000   0.00000   0.00000   0.00000   0.00000   0.00000   0.00000   0.00000
-14.02337   0.00000   0.00000   0.00000   0.00000   0.00000   0.00000   0.00000   0.00000
-13.97329   0.00000   0.00000   0.00000   0.00000   0.00000   0.00000   0.00000   0.00000
-13.92321   0.00000   0.00000   0.00000   0.00000   0.00000   0.00000   0.00000   0.00000
-13.87312   0.00000   0.00000   0.00000   0.00000   0.00000   0.00000   0.00000   0.00000
-13.82304   0.00000   0.00000   0.00000   0.00000   0.00000   0.00000   0.00000   0.00000
-13.77295   0.00000   0.00000   0.00000   0.00000   0.00000   0.00000   0.00000   0.00000
-13.72287   0.00000   0.00000   0.00000   0.00000   0.00000   0.00000   0.00000   0.00000
-13.67279   0.00000   0.00000   0.00000   0.00000   0.00000   0.00000   0.00000   0.00000
-13.62270   0.00000   0.00000   0.00000   0.00000   0.00000   0.00000   0.00000   0.00000
-13.57262   0.00000   0.00000   0.00000   0.00000   0.00000   0.00000   0.00000   0.00000
-13.52254   0.00000   0.00000   0.00000   0.00000   0.00000   0.00000   0.00000   0.00000
-13.47245   0.00000   0.00000   0.00000   0.00000   0.00000   0.00000   0.00000   0.00000
-13.42237   0.00000   0.00000   0.00000   0.00000   0.00000   0.00000   0.00000   0.00000
-13.37229   0.00000   0.00000   0.00000   0.00000   0.00000   0.00000   0.00000   0.00000
-13.32220   0.00000   0.00000   0.00000   0.00000   0.00000   0.00000   0.00000   0.00000
-13.27212   0.00000   0.00000   0.00000   0.00000   0.00000   0.00000   0.00000   0.00000
-13.22204   0.00000   0.00000   0.00000   0.00000   0.00000   0.00000   0.00000   0.00000
-13.17195   0.00098   0.00005   0.00096   0.00005   0.00098   0.00005   0.00098   0.00005
-13.12187   0.00511   0.00030   0.00503   0.00030   0.00514   0.00031   0.00514   0.00031
-13.07179   0.01183   0.00090   0.01170   0.00089   0.01189   0.00090   0.01189   0.00090
-13.02170   0.01616   0.00171   0.01601   0.00169   0.01623   0.00172   0.01623   0.00172
-12.97162   0.01823   0.00262   0.01800   0.00259   0.01835   0.00263   0.01835   0.00263
-12.92154   0.01968   0.00361   0.01938   0.00356   0.01983   0.00363   0.01983   0.00363
-12.87145   0.02257   0.00474   0.02229   0.00468   0.02271   0.00476   0.02271   0.00476
-12.82137   0.02561   0.00602   0.02536   0.00595   0.02573   0.00605   0.02573   0.00605
-12.77129   0.02856   0.00745   0.02830   0.00736   0.02869   0.00749   0.02869   0.00749
-12.72120   0.03132   0.00902   0.03100   0.00892   0.03149   0.00907   0.03149   0.00907
-12.67112   0.03422   0.01073   0.03383   0.01061   0.03442   0.01079   0.03442   0.01079
-12.62104   0.04048   0.01276   0.04029   0.01263   0.04058   0.01282   0.04058   0.01282
-12.57095   0.04803   0.01516   0.04803   0.01503   0.04802   0.01523   0.04802   0.01523
-12.52087   0.04937   0.01764   0.04958   0.01752   0.04927   0.01770   0.04927   0.01770
-12.47078   0.05143   0.02021   0.05170   0.02011   0.05129   0.02027   0.05129   0.02027
-12.42070   0.05505   0.02297   0.05529   0.02288   0.05493   0.02302   0.05493   0.02302
-12.37062   0.06172   0.02606   0.06185   0.02597   0.06166   0.02610   0.06166   0.02610
-12.32053   0.07210   0.02967   0.07222   0.02959   0.07203   0.02971   0.07203   0.02971
-12.27045   0.09023   0.03419   0.09090   0.03414   0.08990   0.03421   0.08990   0.03421
-12.22037   0.10043   0.03922   0.10140   0.03922   0.09995   0.03922   0.09995   0.03922
-12.17028   0.09738   0.04410   0.09837   0.04415   0.09689   0.04407   0.09689   0.04407
-12.12020   0.10188   0.04920   0.10280   0.04930   0.10142   0.04915   0.10142   0.04915
-12.07012   0.09039   0.05373   0.09085   0.05385   0.09017   0.05367   0.09017   0.05367
-12.02003   0.06933   0.05720   0.06960   0.05733   0.06920   0.05713   0.06920   0.05713
-11.96995   0.06658   0.06054   0.06643   0.06066   0.06666   0.06047   0.06666   0.06047
-11.91987   0.07536   0.06431   0.07343   0.06434   0.07633   0.06430   0.07633   0.06430
-11.86978   0.06489   0.06756   0.06422   0.06755   0.06522   0.06756   0.06522   0.06756
-11.81970   0.04319   0.06972   0.04202   0.06966   0.04377   0.06975   0.04377   0.06975
-11.76962   0.03998   0.07172   0.03855   0.07159   0.04069   0.07179   0.04069   0.07179
-11.71953   0.02162   0.07281   0.02061   0.07262   0.02212   0.07290   0.02212   0.07290
-11.66945   0.01454   0.07354   0.01343   0.07330   0.01509   0.07366   0.01509   0.07366
-11.61937   0.01649   0.07436   0.01530   0.07406   0.01709   0.07451   0.01709   0.07451
-11.56928   0.01887   0.07531   0.01791   0.07496   0.01935   0.07548   0.01935   0.07548
-11.51920   0.02143   0.07638   0.02087   0.07600   0.02171   0.07657   0.02171   0.07657
-11.46912   0.02521   0.07764   0.02478   0.07725   0.02542   0.07784   0.02542   0.07784
-11.41903   0.03431   0.07936   0.03305   0.07890   0.03494   0.07959   0.03494   0.07959
-11.36895   0.04676   0.08170   0.04568   0.08119   0.04730   0.08196   0.04730   0.08196
-11.31886   0.06727   0.08507   0.07232   0.08481   0.06474   0.08520   0.06474   0.08520
-11.26878   0.02671   0.08641   0.02683   0.08615   0.02664   0.08654   0.02664   0.08654
-11.21870   0.02584   0.08770   0.02616   0.08746   0.02567   0.08782   0.02567   0.08782
-11.16861   0.02497   0.08895   0.02550   0.08874   0.02471   0.08906   0.02471   0.08906
-11.11853   0.02412   0.09016   0.02484   0.08999   0.02377   0.09025   0.02377   0.09025
-11.06845   0.02322   0.09133   0.02410   0.09119   0.02275   0.09139   0.02280   0.09139
-11.01836   0.02194   0.09242   0.02290   0.09234   0.02131   0.09246   0.02161   0.09248
-10.96828   0.02025   0.09344   0.02078   0.09338   0.01981   0.09345   0.02016   0.09348
-10.91820   0.01790   0.09433   0.01697   0.09423   0.01817   0.09436   0.01856   0.09441
-10.86811   0.01540   0.09511   0.01383   0.09492   0.01598   0.09516   0.01640   0.09524
-10.81803   0.01261   0.09574   0.01162   0.09550   0.01288   0.09581   0.01333   0.09590
-10.76795   0.01008   0.09624   0.00959   0.09598   0.01008   0.09631   0.01057   0.09643
-10.71786   0.00779   0.09663   0.00814   0.09639   0.00736   0.09668   0.00788   0.09683
-10.66778   0.00595   0.09693   0.00650   0.09672   0.00540   0.09695   0.00596   0.09713
-10.61770   0.00474   0.09717   0.00525   0.09698   0.00418   0.09716   0.00477   0.09736
-10.56761   0.00378   0.09736   0.00438   0.09720   0.00316   0.09732   0.00378   0.09755
-10.51753   0.00308   0.09751   0.00373   0.09739   0.00243   0.09744   0.00309   0.09771
-10.46745   0.00255   0.09764   0.00345   0.09756   0.00176   0.09753   0.00245   0.09783
-10.41736   0.00205   0.09774   0.00294   0.09771   0.00125   0.09759   0.00197   0.09793
-10.36728   0.00164   0.09782   0.00242   0.09783   0.00087   0.09763   0.00162   0.09801
-10.31720   0.00126   0.09789   0.00197   0.09793   0.00052   0.09766   0.00130   0.09808
-10.26711   0.00082   0.09793   0.00149   0.09800   0.00008   0.09766   0.00090   0.09812
-10.21703  -0.00106   0.09788  -0.00038   0.09798  -0.00182   0.09757  -0.00097   0.09807
-10.16694  -0.00316   0.09772  -0.00254   0.09785  -0.00391   0.09738  -0.00303   0.09792
-10.11686  -0.00577   0.09743  -0.00491   0.09761  -0.00666   0.09704  -0.00574   0.09763
-10.06678  -0.00890   0.09698  -0.00766   0.09722  -0.00969   0.09656  -0.00934   0.09717
-10.01669  -0.01476   0.09624  -0.01394   0.09653  -0.01489   0.09581  -0.01544   0.09639
 -9.96661  -0.03121   0.09468  -0.03163   0.09494  -0.03053   0.09428  -0.03146   0.09482
 -9.91653  -0.04413   0.09247  -0.04345   0.09277  -0.04403   0.09208  -0.04493   0.09257
 -9.86644  -0.05596   0.08967  -0.06010   0.08976  -0.05346   0.08940  -0.05432   0.08985
 -9.81636  -0.07858   0.08573  -0.08041   0.08573  -0.07726   0.08553  -0.07808   0.08594
 -9.76628  -0.06447   0.08250  -0.06641   0.08240  -0.06310   0.08237  -0.06389   0.08274
 -9.71619  -0.06604   0.07920  -0.06808   0.07899  -0.06464   0.07913  -0.06540   0.07946
 -9.66611  -0.06026   0.07618  -0.06199   0.07589  -0.05903   0.07618  -0.05975   0.07647
 -9.61603  -0.04904   0.07372  -0.05013   0.07338  -0.04815   0.07376  -0.04884   0.07402
 -9.56594  -0.04138   0.07165  -0.04220   0.07126  -0.04065   0.07173  -0.04130   0.07195
 -9.51586  -0.03626   0.06983  -0.03700   0.06941  -0.03558   0.06995  -0.03620   0.07014
 -9.46578  -0.03155   0.06825  -0.03211   0.06780  -0.03097   0.06840  -0.03155   0.06856
 -9.41569  -0.02836   0.06683  -0.02863   0.06637  -0.02795   0.06700  -0.02850   0.06713
 -9.36561  -0.02647   0.06551  -0.02621   0.06506  -0.02635   0.06568  -0.02686   0.06579
 -9.31553  -0.02518   0.06425  -0.02474   0.06382  -0.02516   0.06442  -0.02564   0.06450
 -9.26544  -0.02429   0.06303  -0.02397   0.06262  -0.02424   0.06320  -0.02468   0.06327
 -9.21536  -0.02340   0.06186  -0.02315   0.06146  -0.02333   0.06203  -0.02374   0.06208
 -9.16528  -0.02251   0.06073  -0.02228   0.06034  -0.02244   0.06091  -0.02281   0.06094
 -9.11519  -0.02161   0.05965  -0.02135   0.05927  -0.02157   0.05983  -0.02190   0.05984
 -9.06511  -0.02080   0.05861  -0.02043   0.05825  -0.02090   0.05878  -0.02106   0.05878
 -9.01503  -0.01979   0.05761  -0.01928   0.05728  -0.02003   0.05778  -0.02005   0.05778
 -8.96494  -0.01854   0.05669  -0.01792   0.05639  -0.01885   0.05684  -0.01885   0.05684
 -8.91486  -0.01741   0.05581  -0.01681   0.05554  -0.01772   0.05595  -0.01772   0.05595
 -8.86477  -0.01639   0.05499  -0.01585   0.05475  -0.01666   0.05512  -0.01666   0.05512
 -8.81469  -0.01527   0.05423  -0.01473   0.05401  -0.01554   0.05434  -0.01554   0.05434
 -8.76461  -0.01418   0.05352  -0.01365   0.05333  -0.01445   0.05361  -0.01445   0.05361
 -8.71452  -0.01312   0.05286  -0.01260   0.05270  -0.01339   0.05294  -0.01339   0.05294
 -8.66444  -0.01209   0.05226  -0.01158   0.05212  -0.01235   0.05232  -0.01235   0.05232
 -8.61436  -0.01109   0.05170  -0.01059   0.05159  -0.01135   0.05176  -0.01135   0.05176
 -8.56427  -0.01012   0.05119  -0.00963   0.05111  -0.01037   0.05124  -0.01037   0.05124
 -8.51419  -0.00918   0.05073  -0.00871   0.05067  -0.00942   0.05076  -0.00942   0.05076
 -8.46411  -0.01067   0.05020  -0.01026   0.05016  -0.01087   0.05022  -0.01087   0.05022
 -8.41402  -0.00973   0.04971  -0.00942   0.04968  -0.00989   0.04972  -0.00989   0.04972
 -8.36394  -0.00678   0.04937  -0.00651   0.04936  -0.00691   0.04938  -0.00691   0.04938
 -8.31386  -0.00410   0.04917  -0.00391   0.04916  -0.00419   0.04917  -0.00419   0.04917
 -8.26377  -0.00169   0.04908  -0.00160   0.04908  -0.00174   0.04908  -0.00174   0.04908
 -8.21369  -0.00008   0.04908  -0.00008   0.04908  -0.00008   0.04908  -0.00008   0.04908
 -8.16361   0.00000   0.04908   0.00000   0.04908   0.00000   0.04908   0.00000   0.04908
 -8.11352   0.00000   0.04908   0.00000   0.04908   0.00000   0.04908   0.00000   0.04908
 -8.06344   0.00000   0.04908   0.00000   0.04908   0.00000   0.04908   0.00000   0.04908
 -8.01336   0.00000   0.04908   0.00000   0.04908   0.00000   0.04908   0.00000   0.04908
 -7.96327   0.00000   0.04908   0.00000   0.04908   0.00000   0.04908   0.00000   0.04908
 -7.91319   0.00000   0.04908   0.00000   0.04908   0.00000   0.04908   0.00000   0.04908
 -7.86311   0.00000   0.04908   0.00000   0.04908   0.00000   0.04908   0.00000   0.04908
 -7.81302   0.00000   0.04908   0.00000   0.04908   0.00000   0.04908   0.00000   0.04908
 -7.76294   0.00000   0.04908   0.00000   0.04908   0.00000   0.04908   0.00000   0.04908
 -7.71285   0.00000   0.04908   0.00000   0.04908   0.00000   0.04908   0.00000   0.04908
 -7.66277   0.00000   0.04908   0.00000   0.04908   0.00000   0.04908   0.00000   0.04908
 -7.61269   0.00000   0.04908   0.00000   0.04908   0.00000   0.04908   0.00000   0.04908
 -7.56260   0.00000   0.04908   0.00000   0.04908   0.00000   0.04908   0.00000   0.04908
 -7.51252   0.00000   0.04908   0.00000   0.04908   0.00000   0.04908   0.00000   0.04908
 -7.46244   0.00000   0.04908   0.00000   0.04908   0.00000   0.04908   0.00000   0.04908
 -7.41235   0.00000   0.04908   0.00000   0.04908   0.00000   0.04908   0.00000   0.04908
 -7.36227   0.00000   0.04908   0.00000   0.04908   0.00000   0.04908   0.00000   0.04908
 -7.31219   0.00000   0.04908   0.00000   0.04908   0.00000   0.04908   0.00000   0.04908
 -7.26210   0.00000   0.04908   0.00000   0.04908   0.00000   0.04908   0.00000   0.04908
 -7.21202   0.00000   0.04908   0.00000   0.04908   0.00000   0.04908   0.00000   0.04908
 -7.16194   0.00000   0.04908   0.00000   0.04908   0.00000   0.04908   0.00000   0.04908
 -7.11185   0.00000   0.04908   0.00000   0.04908   0.00000   0.04908   0.00000   0.04908
 -7.06177   0.00000   0.04908   0.00000   0.04908   0.00000   0.04908   0.00000   0.04908
 -7.01169   0.00000   0.04908   0.00000   0.04908   0.00000   0.04908   0.00000   0.04908
 -6.96160   0.00000   0.04908   0.00000   0.04908   0.00000   0.04908   0.00000   0.04908
 -6.91152   0.00000   0.04908   0.00000   0.04908   0.00000   0.04908   0.00000   0.04908
 -6.86144   0.00000   0.04908   0.00000   0.04908   0.00000   0.04908   0.00000   0.04908
 -6.81135   0.00000   0.04908   0.00000   0.04908   0.00000   0.04908   0.00000   0.04908
 -6.76127   0.00000   0.04908   0.00000   0.04908   0.00000   0.04908   0.00000   0.04908
 -6.71119   0.00000   0.04908   0.00000   0.04908   0.00000   0.04908   0.00000   0.04908
 -6.66110   0.00000   0.04908   0.00000   0.04908   0.00000   0.04908   0.00000   0.04908
 -6.61102   0.00000   0.04908   0.00000   0.04908   0.00000   0.04908   0.00000   0.04908
 -6.56093   0.00000   0.04908   0.00000   0.04908   0.00000   0.04908   0.00000   0.04908
 -6.51085   0.00000   0.04908   0.00000   0.04908   0.00000   0.04908   0.00000   0.04908
 -6.46077   0.00000   0.04908   0.00000   0.04908   0.00000   0.04908   0.00000   0.04908
 -6.41068   0.00000   0.04908   0.00000   0.04908   0.00000   0.04908   0.00000   0.04908
 -6.36060   0.00000   0.04908   0.00000   0.04908   0.00000   0.04908   0.00000   0.04908
 -6.31052   0.00000   0.04908   0.00000   0.04908   0.00000   0.04908   0.00000   0.04908
 -6.26043   0.00000   0.04908   0.00000   0.04908   0.00000   0.04908   0.00000   0.04908
 -6.21035   0.00000   0.04908   0.00000   0.04908   0.00000   0.04908   0.00000   0.04908
 -6.16027   0.00000   0.04908   0.00000   0.04908   0.00000   0.04908   0.00000   0.04908
 -6.11018   0.00000   0.04908   0.00000   0.04908   0.00000   0.04908   0.00000   0.04908
 -6.06010   0.00000   0.04908   0.00000   0.04908   0.00000   0.04908   0.00000   0.04908
 -6.01002   0.00000   0.04908   0.00000   0.04908   0.00000   0.04908   0.00000   0.04908
 -5.95993   0.00000   0.04908   0.00000   0.04908   0.00000   0.04908   0.00000   0.04908
 -5.90985   0.00000   0.04908   0.00000   0.04908   0.00000   0.04908   0.00000   0.04908
 -5.85977   0.00000   0.04908   0.00000   0.04908   0.00000   0.04908   0.00000   0.04908
 -5.80968   0.00000   0.04908   0.00000   0.04908   0.00000   0.04908   0.00000   0.04908
 -5.75960   0.00000   0.04908   0.00000   0.04908   0.00000   0.04908   0.00000   0.04908
 -5.70952   0.00000   0.04908   0.00000   0.04908   0.00000   0.04908   0.00000   0.04908
 -5.65943   0.00000   0.04908   0.00000   0.04908   0.00000   0.04908   0.00000   0.04908
 -5.60935   0.00000   0.04908   0.00000   0.04908   0.00000   0.04908   0.00000   0.04908
 -5.55927   0.00000   0.04908   0.00000   0.04908   0.00000   0.04908   0.00000   0.04908
 -5.50918   0.00000   0.04908   0.00000   0.04908   0.00000   0.04908   0.00000   0.04908
 -5.45910   0.00000   0.04908   0.00000   0.04908   0.00000   0.04908   0.00000   0.04908
 -5.40902   0.00000   0.04908   0.00000   0.04908   0.00000   0.04908   0.00000   0.04908
 -5.35893   0.00000   0.04908   0.00000   0.04908   0.00000   0.04908   0.00000   0.04908
 -5.30885   0.00000   0.04908   0.00000   0.04908   0.00000   0.04908   0.00000   0.04908
 -5.25876   0.00000   0.04908   0.00000   0.04908   0.00000   0.04908   0.00000   0.04908
 -5.20868   0.00000   0.04908   0.00000   0.04908   0.00000   0.04908   0.00000   0.04908
 -5.15860   0.00280   0.04922   0.00237   0.04920   0.00302   0.04923   0.00302   0.04923
 -5.10851   0.01111   0.04977   0.01010   0.04970   0.01162   0.04981   0.01162   0.04981
 -5.05843   0.01866   0.05071   0.01832   0.05062   0.01882   0.05075   0.01882   0.05075
 -5.00835   0.02156   0.05179   0.02078   0.05166   0.02194   0.05185   0.02194   0.05185
 -4.95826   0.02659   0.05312   0.02576   0.05295   0.02701   0.05321   0.02701   0.05321
 -4.90818   0.03310   0.05478   0.03237   0.05457   0.03347   0.05488   0.03347   0.05488
 -4.85810   0.04676   0.05712   0.04615   0.05688   0.04707   0.05724   0.04707   0.05724
 -4.80801   0.04944   0.05960   0.05019   0.05940   0.04907   0.05970   0.04907   0.05970
 -4.75793   0.05415   0.06231   0.05487   0.06214   0.05379   0.06239   0.05379   0.06239
 -4.70785   0.05671   0.06515   0.05690   0.06499   0.05661   0.06523   0.05661   0.06523
 -4.65776   0.05182   0.06774   0.05109   0.06755   0.05219   0.06784   0.05219   0.06784
 -4.60768   0.05328   0.07041   0.05289   0.07020   0.05348   0.07052   0.05348   0.07052
 -4.55760   0.06598   0.07372   0.06542   0.07348   0.06626   0.07384   0.06626   0.07384
 -4.50751   0.06913   0.07718   0.06814   0.07689   0.06962   0.07732   0.06962   0.07732
 -4.45743   0.07816   0.08109   0.07745   0.08077   0.07852   0.08126   0.07852   0.08126
 -4.40735   0.09166   0.08568   0.09207   0.08538   0.09145   0.08584   0.09145   0.08584
 -4.35726   0.07322   0.08935   0.07416   0.08909   0.07275   0.08948   0.07275   0.08948
 -4.30718   0.06531   0.09262   0.06513   0.09236   0.06541   0.09276   0.06541   0.09276
 -4.25710   0.07107   0.09618   0.07062   0.09589   0.07130   0.09633   0.07130   0.09633
 -4.20701   0.12296   0.10234   0.12243   0.10203   0.12323   0.10250   0.12323   0.10250
 -4.15693   0.14636   0.10967   0.14634   0.10935   0.14638   0.10983   0.14638   0.10983
 -4.10684   0.13484   0.11642   0.13321   0.11603   0.13566   0.11662   0.13566   0.11662
 -4.05676   0.10874   0.12187   0.10705   0.12139   0.10959   0.12211   0.10959   0.12211
 -4.00668   0.08733   0.12624   0.08761   0.12578   0.08720   0.12648   0.08720   0.12648
 -3.95659   0.07946   0.13022   0.08103   0.12983   0.07868   0.13042   0.07868   0.13042
 -3.90651   0.07665   0.13406   0.07842   0.13376   0.07576   0.13421   0.07576   0.13421
 -3.85643   0.07364   0.13775   0.07551   0.13754   0.07271   0.13786   0.07271   0.13786
 -3.80634   0.07018   0.14127   0.07200   0.14115   0.06927   0.14133   0.06927   0.14133
 -3.75626   0.06633   0.14459   0.06795   0.14455   0.06552   0.14461   0.06552   0.14461
 -3.70618   0.06283   0.14774   0.06418   0.14777   0.06215   0.14772   0.06215   0.14772
 -3.65609   0.06229   0.15086   0.06325   0.15093   0.06182   0.15082   0.06182   0.15082
 -3.60601   0.05959   0.15384   0.05971   0.15392   0.05953   0.15380   0.05953   0.15380
 -3.55593   0.05157   0.15642   0.05136   0.15650   0.05168   0.15639   0.05168   0.15639
 -3.50584   0.04220   0.15854   0.04254   0.15863   0.04204   0.15849   0.04204   0.15849
 -3.45576   0.04122   0.16060   0.04133   0.16070   0.04117   0.16055   0.04117   0.16055
 -3.40568   0.04105   0.16266   0.04111   0.16276   0.04102   0.16261   0.04103   0.16261
 -3.35559   0.04284   0.16480   0.04417   0.16497   0.04217   0.16472   0.04219   0.16472
 -3.30551   0.04821   0.16722   0.05117   0.16753   0.04672   0.16706   0.04676   0.16706
 -3.25543   0.05222   0.16983   0.05305   0.17019   0.05177   0.16965   0.05184   0.16966
 -3.20534   0.04579   0.17213   0.04483   0.17243   0.04620   0.17197   0.04633   0.17198
 -3.15526   0.03676   0.17397   0.03604   0.17424   0.03703   0.17382   0.03722   0.17384
 -3.10518   0.03255   0.17560   0.03271   0.17588   0.03235   0.17544   0.03261   0.17548
 -3.05509   0.02924   0.17706   0.02670   0.17721   0.03031   0.17696   0.03071   0.17701
 -3.00501   0.02595   0.17836   0.02463   0.17845   0.02636   0.17828   0.02687   0.17836
 -2.95492   0.02330   0.17953   0.02271   0.17959   0.02333   0.17945   0.02388   0.17956
 -2.90484   0.02043   0.18055   0.01980   0.18058   0.02049   0.18047   0.02100   0.18061
 -2.85476   0.01745   0.18143   0.01692   0.18142   0.01748   0.18135   0.01793   0.18151
 -2.80467   0.01521   0.18219   0.01445   0.18215   0.01541   0.18212   0.01578   0.18230
 -2.75459   0.01564   0.18297   0.01694   0.18300   0.01502   0.18287   0.01497   0.18305
 -2.70451   0.01081   0.18351   0.01396   0.18370   0.00953   0.18335   0.00895   0.18349
 -2.65442   0.00401   0.18371   0.00772   0.18408   0.00258   0.18348   0.00173   0.18358
 -2.60434  -0.00609   0.18341   0.00174   0.18417  -0.00960   0.18300  -0.01042   0.18306
 -2.55426  -0.00662   0.18308  -0.00224   0.18406  -0.00854   0.18257  -0.00908   0.18260
 -2.50417  -0.00848   0.18265  -0.00709   0.18370  -0.00901   0.18212  -0.00935   0.18214
 -2.45409  -0.01005   0.18215  -0.01059   0.18317  -0.00968   0.18163  -0.00987   0.18164
 -2.40401  -0.01219   0.18154  -0.01333   0.18250  -0.01157   0.18106  -0.01166   0.18106
 -2.35392  -0.01442   0.18082  -0.01499   0.18175  -0.01412   0.18035  -0.01415   0.18035
 -2.30384  -0.01605   0.18001  -0.01547   0.18098  -0.01635   0.17953  -0.01635   0.17953
 -2.25376  -0.01671   0.17918  -0.01463   0.18025  -0.01776   0.17864  -0.01776   0.17864
 -2.20367  -0.01797   0.17828  -0.01540   0.17947  -0.01925   0.17768  -0.01925   0.17768
 -2.15359  -0.02052   0.17725  -0.01806   0.17857  -0.02176   0.17659  -0.02176   0.17659
 -2.10351  -0.02345   0.17607  -0.02099   0.17752  -0.02468   0.17535  -0.02468   0.17535
 -2.05342  -0.03524   0.17431  -0.03268   0.17588  -0.03652   0.17352  -0.03652   0.17352
 -2.00334  -0.05577   0.17151  -0.05722   0.17302  -0.05505   0.17076  -0.05505   0.17076
 -1.95326  -0.06582   0.16822  -0.07011   0.16950  -0.06367   0.16757  -0.06367   0.16757
 -1.90317  -0.06087   0.16517  -0.06659   0.16617  -0.05801   0.16467  -0.05801   0.16467
 -1.85309  -0.05206   0.16256  -0.05690   0.16332  -0.04964   0.16218  -0.04964   0.16218
 -1.80301  -0.04344   0.16039  -0.04680   0.16098  -0.04175   0.16009  -0.04175   0.16009
 -1.75292  -0.04225   0.15827  -0.04531   0.15871  -0.04072   0.15805  -0.04072   0.15805
 -1.70284  -0.04392   0.15607  -0.04543   0.15643  -0.04317   0.15589  -0.04317   0.15589
 -1.65275  -0.04640   0.15375  -0.04707   0.15407  -0.04606   0.15358  -0.04606   0.15358
 -1.60267  -0.04934   0.15128  -0.04907   0.15162  -0.04948   0.15111  -0.04948   0.15111
 -1.55259  -0.05049   0.14875  -0.05021   0.14910  -0.05064   0.14857  -0.05064   0.14857
 -1.50250  -0.04939   0.14627  -0.05074   0.14656  -0.04872   0.14613  -0.04872   0.14613
 -1.45242  -0.05118   0.14371  -0.05350   0.14388  -0.04998   0.14363  -0.05006   0.14362
 -1.40234  -0.05440   0.14099  -0.05760   0.14100  -0.05264   0.14099  -0.05295   0.14097
 -1.35225  -0.05824   0.13807  -0.06274   0.13785  -0.05575   0.13820  -0.05622   0.13815
 -1.30217  -0.05562   0.13528  -0.05969   0.13486  -0.05333   0.13553  -0.05383   0.13546
 -1.25209  -0.05690   0.13243  -0.06128   0.13180  -0.05448   0.13280  -0.05493   0.13271
 -1.20200  -0.05821   0.12952  -0.06301   0.12864  -0.05564   0.13001  -0.05597   0.12990
 -1.15192  -0.05764   0.12663  -0.06264   0.12550  -0.05508   0.12725  -0.05521   0.12714
 -1.10184  -0.05317   0.12397  -0.05590   0.12270  -0.05187   0.12465  -0.05174   0.12455
 -1.05175  -0.05663   0.12113  -0.05851   0.11977  -0.05586   0.12186  -0.05553   0.12177
 -1.00167  -0.06087   0.11808  -0.06090   0.11672  -0.06108   0.11880  -0.06064   0.11873
 -0.95159  -0.06307   0.11492  -0.06140   0.11365  -0.06414   0.11559  -0.06368   0.11554
 -0.90150  -0.06291   0.11177  -0.06041   0.11062  -0.06435   0.11236  -0.06395   0.11234
 -0.85142  -0.06387   0.10857  -0.06026   0.10760  -0.06584   0.10906  -0.06552   0.10906
 -0.80134  -0.06646   0.10525  -0.06390   0.10440  -0.06783   0.10567  -0.06765   0.10567
 -0.75125  -0.06212   0.10213  -0.06236   0.10128  -0.06200   0.10256  -0.06200   0.10256
 -0.70117  -0.06284   0.09899  -0.06259   0.09815  -0.06296   0.09941  -0.06296   0.09941
 -0.65109  -0.06320   0.09582  -0.06207   0.09504  -0.06376   0.09621  -0.06376   0.09621
 -0.60100  -0.06308   0.09266  -0.06098   0.09198  -0.06412   0.09300  -0.06412   0.09300
 -0.55092  -0.06155   0.08958  -0.05988   0.08898  -0.06239   0.08988  -0.06239   0.08988
 -0.50083  -0.05933   0.08661  -0.05805   0.08608  -0.05996   0.08688  -0.05996   0.08688
 -0.45075  -0.05661   0.08377  -0.05540   0.08330  -0.05721   0.08401  -0.05721   0.08401
 -0.40067  -0.05712   0.08091  -0.05488   0.08055  -0.05824   0.08109  -0.05824   0.08109
 -0.35058  -0.04530   0.07864  -0.04349   0.07838  -0.04620   0.07878  -0.04620   0.07878
 -0.30050  -0.04129   0.07658  -0.03959   0.07639  -0.04214   0.07667  -0.04214   0.07667
 -0.25042  -0.03722   0.07471  -0.03576   0.07460  -0.03794   0.07477  -0.03794   0.07477
 -0.20033  -0.03178   0.07312  -0.03052   0.07307  -0.03240   0.07315  -0.03240   0.07315
 -0.15025  -0.02480   0.07188  -0.02370   0.07189  -0.02535   0.07188  -0.02535   0.07188
 -0.10017  -0.01641   0.07106  -0.01554   0.07111  -0.01685   0.07103  -0.01685   0.07103
 -0.05008  -0.01030   0.07054  -0.00996   0.07061  -0.01047   0.07051  -0.01047   0.07051
  0.00000  -0.01246   0.06992  -0.01380   0.06992  -0.01179   0.06992  -0.01179   0.06992
  0.05008   0.00000   0.06992   0.00000   0.06992   0.00000   0.06992   0.00000   0.06992
  0.10017   0.00000   0.06992   0.00000   0.06992   0.00000   0.06992   0.00000   0.06992
  0.15025   0.00000   0.06992   0.00000   0.06992   0.00000   0.06992   0.00000   0.06992
  0.20033   0.00000   0.06992   0.00000   0.06992   0.00000   0.06992   0.00000   0.06992
  0.25042   0.00000   0.06992   0.00000   0.06992   0.00000   0.06992   0.00000   0.06992
  0.30050   0.00000   0.06992   0.00000   0.06992   0.00000   0.06992   0.00000   0.06992
  0.35058   0.00000   0.06992   0.00000   0.06992   0.00000   0.06992   0.00000   0.06992
  0.40067   0.00000   0.06992   0.00000   0.06992   0.00000   0.06992   0.00000   0.06992
  0.45075   0.00000   0.06992   0.00000   0.06992   0.00000   0.06992   0.00000   0.06992
  0.50083   0.00000   0.06992   0.00000   0.06992   0.00000   0.06992   0.00000   0.06992
  0.55092   0.00000   0.06992   0.00000   0.06992   0.00000   0.06992   0.00000   0.06992
  0.60100   0.00000   0.06992   0.00000   0.06992   0.00000   0.06992   0.00000   0.06992
  0.65109  -0.00113   0.06986  -0.00105   0.06986  -0.00117   0.06986  -0.00117   0.06986
  0.70117  -0.00463   0.06963  -0.00424   0.06965  -0.00483   0.06962  -0.00483   0.06962
  0.75125  -0.01092   0.06908  -0.00988   0.06916  -0.01144   0.06904  -0.01144   0.06904
  0.80134  -0.04904   0.06663  -0.03995   0.06716  -0.05363   0.06636  -0.05356   0.06636
  0.85142  -0.12419   0.06041  -0.10323   0.06199  -0.13555   0.05957  -0.13381   0.05966
  0.90150  -0.27430   0.04667  -0.22994   0.05047  -0.29973   0.04456  -0.29322   0.04497
  0.95159  -0.38490   0.02739  -0.34338   0.03327  -0.40878   0.02408  -0.40253   0.02482
  1.00167  -0.44513   0.00510  -0.42034   0.01222  -0.45846   0.00112  -0.45658   0.00195
  1.05175  -0.51629  -0.02076  -0.49846  -0.01274  -0.52341  -0.02509  -0.52701  -0.02445
  1.10184  -0.56792  -0.04920  -0.54712  -0.04015  -0.57549  -0.05391  -0.58116  -0.05355
  1.15192  -0.56461  -0.07748  -0.54009  -0.06720  -0.57530  -0.08273  -0.57843  -0.08252
  1.20200  -0.49924  -0.10248  -0.48723  -0.09160  -0.50409  -0.10797  -0.50640  -0.10788
  1.25209  -0.44912  -0.12498  -0.45905  -0.11459  -0.44349  -0.13018  -0.44483  -0.13016
  1.30217  -0.40896  -0.14546  -0.43205  -0.13623  -0.39721  -0.15008  -0.39761  -0.15008
  1.35225  -0.37470  -0.16423  -0.40397  -0.15646  -0.36005  -0.16811  -0.36007  -0.16811
  1.40234  -0.34672  -0.18159  -0.37746  -0.17536  -0.33134  -0.18471  -0.33134  -0.18471
  1.45242  -0.32795  -0.19802  -0.35596  -0.19319  -0.31394  -0.20043  -0.31394  -0.20043