   3    3    1    1
  1.0526802e+02   4.5186406e-10   4.5186406e-10   5.9531967e-10   5.0000000e-16
            1.000000e-04
  CAR
 DOS and projected DOS file by LOBSTER. Energy is shifted such that the Fermi level lies at 0 eV. 
     20.41308776      -9.63699572   601       5.38804602       1.00000000
-15.02504   0.00000   0.00000
-14.97496   0.00000   0.00000
-14.92487   0.00000   0.00000
-14.87479   0.00000   0.00000
-14.82471   0.00000   0.00000
-14.77462   0.00000   0.00000
-14.72454   0.00000   0.00000
-14.67446   0.00000   0.00000
-14.62437   0.00000   0.00000
-14.57429   0.00000   0.00000
-14.52421   0.00000   0.00000
-14.47412   0.00000   0.00000
-14.42404   0.00000   0.00000
-14.37396   0.00000   0.00000
-14.32387   0.00000   0.00000
-14.27379   0.00000   0.00000
-14.22371   0.00000   0.00000
-14.17362   0.00000   0.00000
-14.12354   0.00000   0.00000
-14.07346   0.00000   0.00000
-14.02337   0.00000   0.00000
-13.97329   0.00000   0.00000
-13.92321   0.00000   0.00000
-13.87312   0.00000   0.00000
-13.82304   0.00000   0.00000
-13.77295   0.00000   0.00000
-13.72287   0.00000   0.00000
-13.67279   0.00000   0.00000
-13.62270   0.00000   0.00000
-13.57262   0.00000   0.00000
-13.52254   0.00000   0.00000
-13.47245   0.00000   0.00000
-13.42237   0.00000   0.00000
-13.37229   0.00000   0.00000
-13.32220   0.00000   0.00000
-13.27212   0.00000   0.00000
-13.22204   0.00013   0.00001
-13.17195   0.02995   0.00151
-13.12187   0.15656   0.00935
-13.07179   0.36298   0.02753
-13.02170   0.49600   0.05237
-12.97162   0.55930   0.08038
-12.92154   0.60333   0.11060
-12.87145   0.69217   0.14526
-12.82137   0.78535   0.18460
-12.77129   0.87363   0.22835
-12.72120   0.95304   0.27608
-12.67112   1.03476   0.32791
-12.62104   1.23273   0.38965
-12.57095   1.47446   0.46349
-12.52087   1.49433   0.53833
-12.47078   1.53799   0.61536
-12.42070   1.62785   0.69689
-12.37062   1.78535   0.78630
-12.32053   2.02970   0.88796
-12.27045   2.46335   1.01133
-12.22037   2.70449   1.14678
-12.17028   2.62426   1.27821
-12.12020   2.71009   1.41395
-12.07012   2.42630   1.53546
-12.02003   1.92645   1.63195
-11.96995   1.90125   1.72717
-11.91987   2.27174   1.84094
-11.86978   1.99850   1.94104
-11.81970   1.38155   2.01023
-11.76962   1.31641   2.07616
-11.71953   0.83482   2.11797
-11.66945   0.66224   2.15114
-11.61937   0.75197   2.18880
-11.56928   0.86129   2.23193
-11.51920   0.97972   2.28100
-11.46912   1.14674   2.33844
-11.41903   1.52409   2.41477
-11.36895   2.03762   2.51682
-11.31886   2.86746   2.66043
-11.26878   1.37754   2.72942
-11.21870   1.37826   2.79845
-11.16861   1.37987   2.86756
-11.11853   1.38237   2.93679
-11.06845   1.38478   3.00615
-11.01836   1.38332   3.07543
-10.96828   1.40365   3.14573
-10.91820   1.50285   3.22100
-10.86811   1.69422   3.30585
-10.81803   2.00084   3.40606
-10.76795   1.97232   3.50484
-10.71786   1.93772   3.60189
-10.66778   1.71145   3.68760
-10.61770   1.46325   3.76089
-10.56761   1.23270   3.82263
-10.51753   0.95307   3.87036
-10.46745   0.64659   3.90274
-10.41736   0.50370   3.92797
-10.36728   0.41562   3.94878
-10.31720   0.33411   3.96552
-10.26711   0.26906   3.97899
-10.21703   0.32772   3.99541
-10.16694   0.40208   4.01554
-10.11686   0.51428   4.04130
-10.06678   0.65682   4.07420
-10.01669   1.03624   4.12610
 -9.96661   2.10047   4.23129
 -9.91653   2.81540   4.37230
 -9.86644   3.14010   4.52957
 -9.81636   3.49956   4.70484
 -9.76628   2.84442   4.84729
 -9.71619   2.74040   4.98454
 -9.66611   2.41975   5.10573
 -9.61603   1.96893   5.20434
 -9.56594   1.65857   5.28741
 -9.51586   1.43910   5.35949
 -9.46578   1.23682   5.42143
 -9.41569   1.08553   5.47580
 -9.36561   0.98114   5.52494
 -9.31553   0.90682   5.57035
 -9.26544   0.85323   5.61309
 -9.21536   0.80040   5.65317
 -9.16528   0.74833   5.69065
 -9.11519   0.69647   5.72553
 -9.06511   0.64251   5.75771
 -9.01503   0.58492   5.78701
 -8.96494   0.52735   5.81342
 -8.91486   0.47873   5.83740
 -8.86477   0.43926   5.85939
 -8.81469   0.40239   5.87955
 -8.76461   0.36695   5.89793
 -8.71452   0.33297   5.91460
 -8.66444   0.30043   5.92965
 -8.61436   0.26933   5.94314
 -8.56427   0.23968   5.95514
 -8.51419   0.21148   5.96573
 -8.46411   0.22797   5.97715
 -8.41402   0.20057   5.98720
 -8.36394   0.13794   5.99410
 -8.31386   0.08225   5.99822
 -8.26377   0.03350   5.99990
 -8.21369   0.00159   5.99998
 -8.16361   0.00000   5.99998
 -8.11352   0.00000   5.99998
 -8.06344   0.00000   5.99998
 -8.01336   0.00000   5.99998
 -7.96327   0.00000   5.99998
 -7.91319   0.00000   5.99998
 -7.86311   0.00000   5.99998
 -7.81302   0.00000   5.99998
 -7.76294   0.00000   5.99998
 -7.71285   0.00000   5.99998
 -7.66277   0.00000   5.99998
 -7.61269   0.00000   5.99998
 -7.56260   0.00000   5.99998
 -7.51252   0.00000   5.99998
 -7.46244   0.00000   5.99998
 -7.41235   0.00000   5.99998
 -7.36227   0.00000   5.99998
 -7.31219   0.00000   5.99998
 -7.26210   0.00000   5.99998
 -7.21202   0.00000   5.99998
 -7.16194   0.00000   5.99998
 -7.11185   0.00000   5.99998
 -7.06177   0.00000   5.99998
 -7.01169   0.00000   5.99998
 -6.96160   0.00000   5.99998
 -6.91152   0.00000   5.99998
 -6.86144   0.00000   5.99998
 -6.81135   0.00000   5.99998
 -6.76127   0.00000   5.99998
 -6.71119   0.00000   5.99998
 -6.66110   0.00000   5.99998
 -6.61102   0.00000   5.99998
 -6.56093   0.00000   5.99998
 -6.51085   0.00000   5.99998
 -6.46077   0.00000   5.99998
 -6.41068   0.00000   5.99998
 -6.36060   0.00000   5.99998
 -6.31052   0.00000   5.99998
 -6.26043   0.00000   5.99998
 -6.21035   0.00000   5.99998
 -6.16027   0.00000   5.99998
 -6.11018   0.00000   5.99998
 -6.06010   0.00000   5.99998
 -6.01002   0.00000   5.99998
 -5.95993   0.00000   5.99998
 -5.90985   0.00000   5.99998
 -5.85977   0.00000   5.99998
 -5.80968   0.00000   5.99998
 -5.75960   0.00000   5.99998
 -5.70952   0.00000   5.99998
 -5.65943   0.00000   5.99998
 -5.60935   0.00000   5.99998
 -5.55927   0.00000   5.99998
 -5.50918   0.00000   5.99998
 -5.45910   0.00000   5.99998
 -5.40902   0.00000   5.99998
 -5.35893   0.00000   5.99998
 -5.30885   0.00000   5.99998
 -5.25876   0.00000   5.99998
 -5.20868   0.00000   5.99998
 -5.15860   0.10129   6.00505
 -5.10851   0.40005   6.02509
 -5.05843   0.66469   6.05838
 -5.00835   0.76349   6.09662
 -4.95826   0.93850   6.14362
 -4.90818   1.16504   6.20197
 -4.85810   1.62731   6.28347
 -4.80801   1.72843   6.37004
 -4.75793   1.90339   6.46537
 -4.70785   1.99416   6.56524
 -4.65776   1.80434   6.65561
 -4.60768   1.83798   6.74766
 -4.55760   2.27833   6.86177
 -4.50751   2.34512   6.97922
 -4.45743   2.62330   7.11060
 -4.40735   3.04118   7.26292
 -4.35726   2.41656   7.38395
 -4.30718   2.14969   7.49161
 -4.25710   2.31752   7.60768
 -4.20701   3.98899   7.80746
 -4.15693   4.74236   8.04498
 -4.10684   4.46112   8.26840
 -4.05676   3.66764   8.45209
 -4.00668   3.01975   8.60333
 -3.95659   2.80858   8.74400
 -3.90651   2.74389   8.88142
 -3.85643   2.67205   9.01524
 -3.80634   2.58543   9.14473
 -3.75626   2.48534   9.26921
 -3.70618   2.38779   9.38880
 -3.65609   2.34846   9.50641
 -3.60601   2.28104   9.62066
 -3.55593   2.12199   9.72693
 -3.50584   1.95232   9.82471
 -3.45576   2.03423   9.92659
 -3.40568   2.16876  10.03521
 -3.35559   2.56761  10.16381
 -3.30551   3.38945  10.33356
 -3.25543   3.99825  10.53381
 -3.20534   3.85546  10.72690
 -3.15526   3.41309  10.89784
 -3.10518   3.15066  11.05564
 -3.05509   2.81276  11.19651
 -3.00501   2.21391  11.30739
 -2.95492   1.97624  11.40637
 -2.90484   1.89928  11.50149
 -2.85476   1.83184  11.59324
 -2.80467   1.83498  11.68514
 -2.75459   2.07788  11.78921
 -2.70451   1.91067  11.88490
 -2.65442   1.77434  11.97376
 -2.60434   2.04156  12.07601
 -2.55426   1.69873  12.16109
 -2.50417   1.73035  12.24775
 -2.45409   1.63570  12.32967
 -2.40401   1.44944  12.40227
 -2.35392   1.25483  12.46511
 -2.30384   1.17345  12.52388
 -2.25376   1.15560  12.58176
 -2.20367   1.17054  12.64039
 -2.15359   1.28572  12.70478
 -2.10351   1.41377  12.77559
 -2.05342   1.86276  12.86888
 -2.00334   2.56818  12.99750
 -1.95326   2.91928  13.14371
 -1.90317   2.77104  13.28249
 -1.85309   2.45781  13.40559
 -1.80301   2.15679  13.51361
 -1.75292   2.13867  13.62072
 -1.70284   2.24912  13.73336
 -1.65275   2.39513  13.85332
 -1.60267   2.55689  13.98138
 -1.55259   2.62841  14.11302
 -1.50250   2.58679  14.24257
 -1.45242   2.70588  14.37809
 -1.40234   2.92084  14.52438
 -1.35225   3.20154  14.68472
 -1.30217   3.18610  14.84430
 -1.25209   3.37809  15.01348
 -1.20200   3.62213  15.19489
 -1.15192   3.67280  15.37884
 -1.10184   3.43112  15.55068
 -1.05175   3.51487  15.72672
 -1.00167   3.66358  15.91020
 -0.95159   3.77669  16.09935
 -0.90150   3.69958  16.28464
 -0.85142   3.64710  16.46730
 -0.80134   3.55223  16.64521
 -0.75125   2.98690  16.79480
 -0.70117   3.00260  16.94518
 -0.65109   3.03031  17.09695
 -0.60100   3.03313  17.24886
 -0.55092   2.78260  17.38822
 -0.50083   2.45681  17.51127
 -0.45075   2.12268  17.61758
 -0.40067   1.92108  17.71379
 -0.35058   1.37148  17.78248
 -0.30050   1.09817  17.83748
 -0.25042   0.94013  17.88457
 -0.20033   0.77467  17.92336
 -0.15025   0.58895  17.95286
 -0.10017   0.38593  17.97219
 -0.05008   0.24302  17.98436
  0.00000   0.31114  17.99994
  0.05008   0.00000  17.99994
  0.10017   0.00000  17.99994
  0.15025   0.00000  17.99994
  0.20033   0.00000  17.99994
  0.25042   0.00000  17.99994
  0.30050   0.00000  17.99994
  0.35058   0.00000  17.99994
  0.40067   0.00000  17.99994
  0.45075   0.00000  17.99994
  0.50083   0.00000  17.99994
  0.55092   0.00000  17.99994
  0.60100   0.00000  17.99994
  0.65109   0.00953  18.00042
  0.70117   0.03929  18.00239
  0.75125   0.09354  18.00707
  0.80134   0.39181  18.02670
  0.85142   0.99045  18.07630
  0.90150   2.19656  18.18631
  0.95159   3.09800  18.34147
  1.00167   3.57853  18.52070
  1.05175   4.10754  18.72642
  1.10184   4.45679  18.94963
  1.15192   4.38593  19.16929
  1.20200   3.88021  19.36363
  1.25209   3.49166  19.53850
  1.30217   3.17635  19.69758
  1.35225   2.90463  19.84306
  1.40234   2.68693  19.97763
  1.45242   2.54955  20.10532
  1.50250   2.52022  20.23154
  1.55259   2.78326  20.37094
  1.60267   3.66803  20.55464
  1.65275   3.73318  20.74161
  1.70284   3.48405  20.91611
  1.75292   3.39013  21.08590
  1.80301   3.38276  21.25532
  1.85309   3.32176  21.42168
  1.90317   3.22235  21.58307
  1.95326   3.21109  21.74389
  2.00334   3.22569  21.90544
  2.05342   2.89620  22.05050
  2.10351   2.52279  22.17685
  2.15359   2.33652  22.29387
  2.20367   1.94244  22.39115
  2.25376   1.86456  22.48454
  2.30384   1.82652  22.57601
  2.35392   1.84188  22.66826
  2.40401   1.90606  22.76372
  2.45409   2.29409  22.87862
  2.50417   3.16729  23.03725
  2.55426   2.43451  23.15918
  2.60434   1.61701  23.24016
  2.65442   1.37810  23.30918
  2.70451   1.26945  23.37276
  2.75459   1.19236  23.43248
  2.80467   1.12728  23.48894
  2.85476   1.07519  23.54279
  2.90484   1.08369  23.59706
  2.95492   1.12618  23.65346
  3.00501   1.40067  23.72361
  3.05509   1.39218  23.79334
  3.10518   0.93046  23.83994
  3.15526   0.78793  23.87940
  3.20534   0.67884  23.91340
  3.25543   0.57845  23.94237
  3.30551   0.45437  23.96513
  3.35559   0.31585  23.98095
  3.40568   0.20147  23.99104
  3.45576   0.11333  23.99671
  3.50584   0.05055  23.99925
  3.55593   0.01313  23.99990
  3.60601   0.00046  23.99993
  3.65609   0.00000  23.99993
  3.70618   0.00000  23.99993
  3.75626   0.00000  23.99993
  3.80634   0.00000  23.99993
  3.85643   0.00000  23.99993
  3.90651   0.00000  23.99993
  3.95659   0.00000  23.99993
  4.00668   0.00000  23.99993
  4.05676   0.00000  23.99993
  4.10684   0.00000  23.99993
  4.15693   0.00000  23.99993
  4.20701   0.00000  23.99993
  4.25710   0.00000  23.99993
  4.30718   0.00000  23.99993
  4.35726   0.00000  23.99993
  4.40735   0.00000  23.99993
  4.45743   0.00000  23.99993
  4.50751   0.00000  23.99993
  4.55760   0.00000  23.99993
  4.60768   0.00000  23.99993
  4.65776   0.00000  23.99993
  4.70785   0.00000  23.99993
  4.75793   0.00000  23.99993
  4.80801   0.00000  23.99993
  4.85810   0.00000  23.99993
  4.90818   0.00000  23.99993
  4.95826   0.00000  23.99993
  5.00835   0.00000  23.99993
  5.05843   0.00000  23.99993
  5.10851   0.00000  23.99993
  5.15860   0.00000  23.99993
  5.20868   0.00000  23.99993
  5.25876   0.00000  23.99993
  5.30885   0.00000  23.99993
  5.35893   0.00000  23.99993
  5.40902   0.00000  23.99993
  5.45910   0.00000  23.99993
  5.50918   0.00000  23.99993
  5.55927   0.00000  23.99993
  5.60935   0.00000  23.99993
  5.65943   0.00000  23.99993
  5.70952   0.00000  23.99993
  5.75960   0.00000  23.99993
  5.80968   0.00000  23.99993
  5.85977   0.00000  23.99993
  5.90985   0.00000  23.99993
  5.95993   0.00000  23.99993
  6.01002   0.00000  23.99993
  6.06010   0.00000  23.99993
  6.11018   0.00000  23.99993
  6.16027   0.00000  23.99993
  6.21035   0.00000  23.99993
  6.26043   0.00000  23.99993
  6.31052   0.00000  23.99993
  6.36060   0.00000  23.99993
  6.41068   0.00000  23.99993
  6.46077   0.00000  23.99993
  6.51085   0.00000  23.99993
  6.56093   0.00000  23.99993
  6.61102   0.00000  23.99993
  6.66110   0.00000  23.99993
  6.71119   0.00000  23.99993
  6.76127   0.00000  23.99993
  6.81135   0.00000  23.99993
  6.86144   0.00000  23.99993
  6.91152   0.00000  23.99993
  6.96160   0.00000  23.99993
  7.01169   0.00000  23.99993
  7.06177   0.00000  23.99993
  7.11185   0.00000  23.99993
  7.16194   0.00000  23.99993
  7.21202   0.00000  23.99993
  7.26210   0.00000  23.99993
  7.31219   0.00000  23.99993
  7.36227   0.00000  23.99993
  7.41235   0.00000  23.99993
  7.46244   0.00000  23.99993
  7.51252   0.00000  23.99993
  7.56260   0.00000  23.99993
  7.61269   0.00000  23.99993
  7.66277   0.00000  23.99993
  7.71285   0.00000  23.99993
  7.76294   0.00000  23.99993
  7.81302   0.00000  23.99993
  7.86311   0.00000  23.99993
  7.91319   0.00000  23.99993
  7.96327   0.00000  23.99993
  8.01336   0.00000  23.99993
  8.06344   0.00000  23.99993
  8.11352   0.00000  23.99993
  8.16361   0.00000  23.99993
  8.21369   0.00000  23.99993
  8.26377   0.00000  23.99993
  8.31386   0.00000  23.99993
  8.36394   0.00000  23.99993
  8.41402   0.00000  23.99993
  8.46411   0.00000  23.99993
  8.51419   0.00000  23.99993
  8.56427   0.00000  23.99993
  8.61436   0.00000  23.99993
  8.66444   0.00000  23.99993
  8.71452   0.00000  23.99993
  8.76461   0.00000  23.99993
  8.81469   0.00000  23.99993
  8.86477   0.00000  23.99993
  8.91486   0.00000  23.99993
  8.96494   0.00000  23.99993
  9.01503   0.00000  23.99993
  9.06511   0.00000  23.99993
  9.11519   0.00000  23.99993
  9.16528   0.00000  23.99993
  9.21536   0.00000  23.99993
  9.26544   0.00000  23.99993
  9.31553   0.00000  23.99993
  9.36561   0.00000  23.99993
  9.41569   0.00000  23.99993
  9.46578   0.00000  23.99993
  9.51586   0.00000  23.99993
  9.56594   0.00000  23.99993
  9.61603   0.00000  23.99993
  9.66611   0.00000  23.99993
  9.71619   0.00000  23.99993
  9.76628   0.00000  23.99993
  9.81636   0.00000  23.99993
  9.86644   0.00000  23.99993
  9.91653   0.00000  23.99993
  9.96661   0.00000  23.99993
 10.01669   0.00000  23.99993
 10.06678   0.00000  23.99993
 10.11686   0.00000  23.99993
 10.16694   0.00000  23.99993
 10.21703   0.00000  23.99993
 10.26711   0.00000  23.99993
 10.31720   0.00000  23.99993
 10.36728   0.00000  23.99993
 10.41736   0.00000  23.99993
 10.46745   0.00000  23.99993
 10.51753   0.00000  23.99993
 10.56761   0.00000  23.99993
 10.61770   0.00000  23.99993
 10.66778   0.00000  23.99993
 10.71786   0.00000  23.99993
 10.76795   0.00000  23.99993
 10.81803   0.00000  23.99993
 10.86811   0.00000  23.99993
 10.91820   0.00000  23.99993
 10.96828   0.00000  23.99993
 11.01836   0.00000  23.99993
 11.06845   0.00000  23.99993
 11.11853   0.00000  23.99993
 11.16861   0.00000  23.99993
 11.21870   0.00000  23.99993
 11.26878   0.00000  23.99993
 11.31886   0.00000  23.99993
 11.36895   0.00000  23.99993
 11.41903   0.00000  23.99993
 11.46912   0.00000  23.99993
 11.51920   0.00000  23.99993
 11.56928   0.00000  23.99993
 11.61937   0.00000  23.99993
 11.66945   0.00000  23.99993
 11.71953   0.00000  23.99993
 11.76962   0.00000  23.99993
 11.81970   0.00000  23.99993
 11.86978   0.00000  23.99993
 11.91987   0.00000  23.99993
 11.96995   0.00000  23.99993
 12.02003   0.00000  23.99993
 12.07012   0.00000  23.99993
 12.12020   0.00000  23.99993
 12.17028   0.00000  23.99993
 12.22037   0.00000  23.99993
 12.27045   0.00000  23.99993
 12.32053   0.00000  23.99993
 12.37062   0.00000  23.99993
 12.42070   0.00000  23.99993
 12.47078   0.00000  23.99993
 12.52087   0.00000  23.99993
 12.57095   0.00000  23.99993
 12.62104   0.00000  23.99993
 12.67112   0.00000  23.99993
 12.72120   0.00000  23.99993
 12.77129   0.00000  23.99993
 12.82137   0.00000  23.99993
 12.87145   0.00000  23.99993
 12.92154   0.00000  23.99993
 12.97162   0.00000  23.99993
 13.02170   0.00000  23.99993
 13.07179   0.00000  23.99993
 13.12187   0.00000  23.99993
 13.17195   0.00000  23.99993
 13.22204   0.00000  23.99993
 13.27212   0.00000  23.99993
 13.32220   0.00000  23.99993
 13.37229   0.00000  23.99993
 13.42237   0.00000  23.99993
 13.47245   0.00000  23.99993
 13.52254   0.00000  23.99993
 13.57262   0.00000  23.99993
 13.62270   0.00000  23.99993
 13.67279   0.00000  23.99993
 13.72287   0.00000  23.99993
 13.77295   0.00000  23.99993
 13.82304   0.00000  23.99993
 13.87312   0.00000  23.99993
 13.92321   0.00000  23.99993
 13.97329   0.00000  23.99993
 14.02337   0.00000  23.99993
 14.07346   0.00000  23.99993
 14.12354   0.00000  23.99993
 14.17362   0.00000  23.99993
 14.22371   0.00000  23.99993
 14.27379   0.00000  23.99993
 14.32387   0.00000  23.99993
 14.37396   0.00000  23.99993
 14.42404   0.00000  23.99993
 14.47412   0.00000  23.99993
 14.52421   0.00000  23.99993
 14.57429   0.00000  23.99993
 14.62437   0.00000  23.99993
 14.67446   0.00000  23.99993
 14.72454   0.00000  23.99993
 14.77462   0.00000  23.99993
 14.82471   0.00000  23.99993
 14.87479   0.00000  23.99993
 14.92487   0.00000  23.99993
 14.97496   0.00000  23.99993
 15.02504   0.00000  23.99993
     15.02504174     -15.02504174   601       5.38804602       1.00000000; Z= 52; 5s 5p_y 5p_z 5p_x 
-15.02504   0.00000   0.00000   0.00000   0.00000
-14.97496   0.00000   0.00000   0.00000   0.00000
-14.92487   0.00000   0.00000   0.00000   0.00000
-14.87479   0.00000   0.00000   0.00000   0.00000
-14.82471   0.00000   0.00000   0.00000   0.00000
-14.77462   0.00000   0.00000   0.00000   0.00000
-14.72454   0.00000   0.00000   0.00000   0.00000
-14.67446   0.00000   0.00000   0.00000   0.00000
-14.62437   0.00000   0.00000   0.00000   0.00000
-14.57429   0.00000   0.00000   0.00000   0.00000
-14.52421   0.00000   0.00000   0.00000   0.00000
-14.47412   0.00000   0.00000   0.00000   0.00000
-14.42404   0.00000   0.00000   0.00000   0.00000
-14.37396   0.00000   0.00000   0.00000   0.00000
-14.32387   0.00000   0.00000   0.00000   0.00000
-14.27379   0.00000   0.00000   0.00000   0.00000
-14.22371   0.00000   0.00000   0.00000   0.00000
-14.17362   0.00000   0.00000   0.00000   0.00000
-14.12354   0.00000   0.00000   0.00000   0.00000
-14.07346   0.00000   0.00000   0.00000   0.00000
-14.02337   0.00000   0.00000   0.00000   0.00000
-13.97329   0.00000   0.00000   0.00000   0.00000
-13.92321   0.00000   0.00000   0.00000   0.00000
-13.87312   0.00000   0.00000   0.00000   0.00000
-13.82304   0.00000   0.00000   0.00000   0.00000
-13.77295   0.00000   0.00000   0.00000   0.00000
-13.72287   0.00000   0.00000   0.00000   0.00000
-13.67279   0.00000   0.00000   0.00000   0.00000
-13.62270   0.00000   0.00000   0.00000   0.00000
-13.57262   0.00000   0.00000   0.00000   0.00000
-13.52254   0.00000   0.00000   0.00000   0.00000
-13.47245   0.00000   0.00000   0.00000   0.00000
-13.42237   0.00000   0.00000   0.00000   0.00000
-13.37229   0.00000   0.00000   0.00000   0.00000
-13.32220   0.00000   0.00000   0.00000   0.00000
-13.27212   0.00000   0.00000   0.00000   0.00000
-13.22204   0.00004   0.00000   0.00000   0.00000
-13.17195   0.00979   0.00012   0.00003   0.00005
-13.12187   0.05118   0.00061   0.00015   0.00025
-13.07179   0.11850   0.00146   0.00042   0.00063
-13.02170   0.16140   0.00219   0.00076   0.00098
-12.97162   0.18144   0.00270   0.00104   0.00126
-12.92154   0.19510   0.00315   0.00134   0.00152
-12.87145   0.22334   0.00378   0.00176   0.00184
-12.82137   0.25294   0.00445   0.00220   0.00219
-12.77129   0.28077   0.00521   0.00266   0.00258
-12.72120   0.30548   0.00607   0.00312   0.00302
-12.67112   0.33086   0.00702   0.00361   0.00349
-12.62104   0.39320   0.00834   0.00533   0.00411
-12.57095   0.46937   0.00984   0.00751   0.00482
-12.52087   0.47485   0.01084   0.00716   0.00529
-12.47078   0.48810   0.01183   0.00700   0.00574
-12.42070   0.51597   0.01316   0.00721   0.00632
-12.37062   0.56484   0.01566   0.00741   0.00736
-12.32053   0.64092   0.01944   0.00767   0.00890
-12.27045   0.77638   0.02572   0.00815   0.01143
-12.22037   0.85064   0.02937   0.00860   0.01275
-12.17028   0.82480   0.02841   0.00891   0.01227
-12.12020   0.85090   0.03027   0.00904   0.01281
-12.07012   0.76155   0.02635   0.00900   0.01139
-12.02003   0.60591   0.01892   0.00878   0.00871
-11.96995   0.59671   0.01734   0.01054   0.00831
-11.91987   0.70873   0.01812   0.01780   0.00883
-11.86978   0.62927   0.01506   0.01700   0.00776
-11.81970   0.43294   0.00983   0.01390   0.00544
-11.76962   0.41045   0.00888   0.01460   0.00528
-11.71953   0.25866   0.00391   0.01332   0.00266
-11.66945   0.20478   0.00201   0.01268   0.00171
-11.61937   0.23240   0.00247   0.01368   0.00225
-11.56928   0.26652   0.00303   0.01505   0.00281
-11.51920   0.30362   0.00365   0.01651   0.00343
-11.46912   0.35593   0.00459   0.01821   0.00448
-11.41903   0.46884   0.00671   0.02169   0.00739
-11.36895   0.62329   0.00980   0.02650   0.01137
-11.31886   0.89999   0.01564   0.03224   0.01634
-11.26878   0.42548   0.00553   0.01973   0.00724
-11.21870   0.42610   0.00538   0.01990   0.00726
-11.16861   0.42689   0.00523   0.02008   0.00730
-11.11853   0.42783   0.00509   0.02027   0.00736
-11.06845   0.42878   0.00494   0.02044   0.00742
-11.01836   0.42887   0.00478   0.02055   0.00751
-10.96828   0.43587   0.00474   0.02105   0.00773
-10.91820   0.47054   0.00513   0.02227   0.00847
-10.86811   0.52942   0.00588   0.02438   0.01043
-10.81803   0.61448   0.00704   0.02820   0.01421
-10.76795   0.60572   0.00726   0.02763   0.01439
-10.71786   0.59396   0.00747   0.02696   0.01454
-10.66778   0.52590   0.00662   0.02441   0.01245
-10.61770   0.45095   0.00558   0.02168   0.01017
-10.56761   0.38055   0.00461   0.01921   0.00817
-10.51753   0.29531   0.00337   0.01635   0.00570
-10.46745   0.20029   0.00198   0.01312   0.00313
-10.41736   0.15591   0.00137   0.01115   0.00213
-10.36728   0.12877   0.00104   0.00968   0.00161
-10.31720   0.10355   0.00075   0.00823   0.00116
-10.26711   0.08347   0.00056   0.00684   0.00086
-10.21703   0.10281   0.00102   0.00625   0.00145
-10.16694   0.12720   0.00160   0.00577   0.00208
-10.11686   0.16263   0.00243   0.00558   0.00292
-10.06678   0.20550   0.00353   0.00554   0.00398
-10.01669   0.32099   0.00566   0.01007   0.00572
 -9.96661   0.64992   0.01118   0.02502   0.00933
 -9.91653   0.86985   0.01611   0.03291   0.01191
 -9.86644   0.98207   0.02145   0.03249   0.01409
 -9.81636   1.08452   0.03312   0.02821   0.01784
 -9.76628   0.88030   0.02721   0.02448   0.01505
 -9.71619   0.84726   0.02820   0.02205   0.01537
 -9.66611   0.74821   0.02469   0.01904   0.01427
 -9.61603   0.60812   0.01952   0.01640   0.01144
 -9.56594   0.51179   0.01620   0.01455   0.00937
 -9.51586   0.44396   0.01377   0.01309   0.00804
 -9.46578   0.38132   0.01157   0.01178   0.00678
 -9.41569   0.33455   0.00995   0.01059   0.00594
 -9.36561   0.30234   0.00905   0.00948   0.00543
 -9.31553   0.27950   0.00835   0.00866   0.00502
 -9.26544   0.26309   0.00778   0.00806   0.00468
 -9.21536   0.24694   0.00721   0.00747   0.00434
 -9.16528   0.23105   0.00665   0.00689   0.00401
 -9.11519   0.21530   0.00610   0.00630   0.00367
 -9.06511   0.19944   0.00549   0.00559   0.00330
 -9.01503   0.18236   0.00485   0.00489   0.00291
 -8.96494   0.16485   0.00422   0.00431   0.00252
 -8.91486   0.14998   0.00367   0.00384   0.00220
 -8.86477   0.13786   0.00325   0.00347   0.00194
 -8.81469   0.12644   0.00292   0.00312   0.00175
 -8.76461   0.11546   0.00261   0.00278   0.00156
 -8.71452   0.10492   0.00231   0.00246   0.00138
 -8.66444   0.09482   0.00203   0.00215   0.00121
 -8.61436   0.08516   0.00177   0.00187   0.00104
 -8.56427   0.07595   0.00151   0.00159   0.00089
 -8.51419   0.06718   0.00128   0.00134   0.00075
 -8.46411   0.07294   0.00113   0.00133   0.00063
 -8.41402   0.06442   0.00088   0.00111   0.00048
 -8.36394   0.04436   0.00059   0.00073   0.00032
 -8.31386   0.02649   0.00035   0.00042   0.00018
 -8.26377   0.01081   0.00014   0.00016   0.00007
 -8.21369   0.00051   0.00001   0.00001   0.00000
 -8.16361   0.00000   0.00000   0.00000   0.00000
 -8.11352   0.00000   0.00000   0.00000   0.00000
 -8.06344   0.00000   0.00000   0.00000   0.00000
 -8.01336   0.00000   0.00000   0.00000   0.00000
 -7.96327   0.00000   0.00000   0.00000   0.00000
 -7.91319   0.00000   0.00000   0.00000   0.00000
 -7.86311   0.00000   0.00000   0.00000   0.00000
 -7.81302   0.00000   0.00000   0.00000   0.00000
 -7.76294   0.00000   0.00000   0.00000   0.00000
 -7.71285   0.00000   0.00000   0.00000   0.00000
 -7.66277   0.00000   0.00000   0.00000   0.00000
 -7.61269   0.00000   0.00000   0.00000   0.00000
 -7.56260   0.00000   0.00000   0.00000   0.00000
 -7.51252   0.00000   0.00000   0.00000   0.00000
 -7.46244   0.00000   0.00000   0.00000   0.00000
 -7.41235   0.00000   0.00000   0.00000   0.00000
 -7.36227   0.00000   0.00000   0.00000   0.00000
 -7.31219   0.00000   0.00000   0.00000   0.00000
 -7.26210   0.00000   0.00000   0.00000   0.00000
 -7.21202   0.00000   0.00000   0.00000   0.00000
 -7.16194   0.00000   0.00000   0.00000   0.00000
 -7.11185   0.00000   0.00000   0.00000   0.00000
 -7.06177   0.00000   0.00000   0.00000   0.00000
 -7.01169   0.00000   0.00000   0.00000   0.00000
 -6.96160   0.00000   0.00000   0.00000   0.00000
 -6.91152   0.00000   0.00000   0.00000   0.00000
 -6.86144   0.00000   0.00000   0.00000   0.00000
 -6.81135   0.00000   0.00000   0.00000   0.00000
 -6.76127   0.00000   0.00000   0.00000   0.00000
 -6.71119   0.00000   0.00000   0.00000   0.00000
 -6.66110   0.00000   0.00000   0.00000   0.00000
 -6.61102   0.00000   0.00000   0.00000   0.00000
 -6.56093   0.00000   0.00000   0.00000   0.00000
 -6.51085   0.00000   0.00000   0.00000   0.00000
 -6.46077   0.00000   0.00000   0.00000   0.00000
 -6.41068   0.00000   0.00000   0.00000   0.00000
 -6.36060   0.00000   0.00000   0.00000   0.00000
 -6.31052   0.00000   0.00000   0.00000   0.00000
 -6.26043   0.00000   0.00000   0.00000   0.00000
 -6.21035   0.00000   0.00000   0.00000   0.00000
 -6.16027   0.00000   0.00000   0.00000   0.00000
 -6.11018   0.00000   0.00000   0.00000   0.00000
 -6.06010   0.00000   0.00000   0.00000   0.00000
 -6.01002   0.00000   0.00000   0.00000   0.00000
 -5.95993   0.00000   0.00000   0.00000   0.00000
 -5.90985   0.00000   0.00000   0.00000   0.00000
 -5.85977   0.00000   0.00000   0.00000   0.00000
 -5.80968   0.00000   0.00000   0.00000   0.00000
 -5.75960   0.00000   0.00000   0.00000   0.00000
 -5.70952   0.00000   0.00000   0.00000   0.00000
 -5.65943   0.00000   0.00000   0.00000   0.00000
 -5.60935   0.00000   0.00000   0.00000   0.00000
 -5.55927   0.00000   0.00000   0.00000   0.00000
 -5.50918   0.00000   0.00000   0.00000   0.00000
 -5.45910   0.00000   0.00000   0.00000   0.00000
 -5.40902   0.00000   0.00000   0.00000   0.00000
 -5.35893   0.00000   0.00000   0.00000   0.00000
 -5.30885   0.00000   0.00000   0.00000   0.00000
 -5.25876   0.00000   0.00000   0.00000   0.00000
 -5.20868   0.00000   0.00000   0.00000   0.00000
 -5.15860   0.00032   0.00663   0.00971   0.01660
 -5.10851   0.00141   0.03191   0.04229   0.05681
 -5.05843   0.00265   0.06472   0.07847   0.07637
 -5.00835   0.00298   0.07058   0.08794   0.09291
 -4.95826   0.00364   0.08699   0.10809   0.11386
 -4.90818   0.00450   0.10989   0.13515   0.13865
 -4.85810   0.00603   0.15561   0.19043   0.19073
 -4.80801   0.00689   0.17769   0.20908   0.18435
 -4.75793   0.00773   0.20071   0.22961   0.19819
 -4.70785   0.00801   0.21179   0.24118   0.20466
 -4.65776   0.00724   0.18769   0.22348   0.18243
 -4.60768   0.00712   0.19381   0.23564   0.17567
 -4.55760   0.00887   0.24015   0.30027   0.20870
 -4.50751   0.00860   0.24621   0.31679   0.20856
 -4.45743   0.00920   0.27567   0.36358   0.22433
 -4.40735   0.01020   0.31586   0.43692   0.24946
 -4.35726   0.00897   0.25178   0.34335   0.20040
 -4.30718   0.00877   0.21675   0.30422   0.18476
 -4.25710   0.01034   0.22754   0.33348   0.19969
 -4.20701   0.01926   0.38833   0.58960   0.33483
 -4.15693   0.02351   0.45518   0.72453   0.37889
 -4.10684   0.02497   0.42912   0.68955   0.34560
 -4.05676   0.02266   0.35858   0.56764   0.27710
 -4.00668   0.02025   0.29937   0.46725   0.22253
 -3.95659   0.02005   0.27999   0.43582   0.20328
 -3.90651   0.02039   0.27549   0.42497   0.19685
 -3.85643   0.02064   0.27164   0.41173   0.19010
 -3.80634   0.02079   0.26690   0.39520   0.18276
 -3.75626   0.02085   0.26094   0.37577   0.17510
 -3.70618   0.02080   0.25339   0.35789   0.16832
 -3.65609   0.02050   0.24278   0.35780   0.16573
 -3.60601   0.02037   0.23537   0.34559   0.16219
 -3.55593   0.02042   0.23299   0.30229   0.15473
 -3.50584   0.02056   0.23794   0.24597   0.14929