    3    3    1    1
  0.3508934E+02  0.4518641E-09  0.4518641E-09  0.5953197E-09  0.5000000E-15
   1.0000000000000000E-004
  CAR 
 Te-a                                    
     18    245     14

  0.3742002E-15  0.3742002E-15  0.3742002E-15  0.4081633E-02
    1       -7.843706   1.000000
    2       -4.676837   1.000000
    3       -4.676836   1.000000
    4        2.554526   1.000000
    5        2.818018   1.000000
    6        2.818018   1.000000
    7        3.915400   1.000000
    8        3.915400   1.000000
    9        4.726103   1.000000
   10        6.524967   0.000000
   11        6.524967   0.000000
   12        7.078869   0.000000
   13       10.577146   0.000000
   14       10.577147   0.000000

  0.1428571E+00  0.3469447E-15  0.3742002E-15  0.4081633E-02
    1       -7.714481   1.000000
    2       -4.727224   1.000000
    3       -4.647972   1.000000
    4        1.739426   1.000000
    5        2.276944   1.000000
    6        2.580501   1.000000
    7        4.251768   1.000000
    8        4.570268   1.000000
    9        4.886155   1.000000
   10        6.256791   0.000000
   11        6.445214   0.000000
   12        6.948318   0.000000
   13       10.145405   0.000000
   14       10.542907   0.000000

  0.2857143E+00  0.3608225E-15  0.3742002E-15  0.4081633E-02
    1       -7.360406   1.000000
    2       -4.950763   1.000000
    3       -4.575038   1.000000
    4        1.003237   1.000000
    5        1.647921   1.000000
    6        2.160623   1.000000
    7        3.732715   1.000000
    8        4.593289   1.000000
    9        4.756122   1.000000
   10        6.377098   0.000000
   11        6.562450   0.000000
   12        7.702637   0.000000
   13        9.224492   0.000000
   14       11.082952   0.000000

  0.4285714E+00  0.3885781E-15  0.3742002E-15  0.4081633E-02
    1       -6.946444   1.000000
    2       -5.313940   1.000000
    3       -4.509153   1.000000
    4        0.887571   1.000000
    5        1.319371   1.000000
    6        1.985337   1.000000
    7        2.519614   1.000000
    8        4.569200   1.000000
    9        4.752132   1.000000
   10        6.384693   0.000000
   11        6.464061   0.000000
   12        8.681974   0.000000
   13        8.917964   0.000000
   14       12.368583   0.000000

 -0.4285714E+00  0.3885781E-15  0.3742002E-15  0.4081633E-02
    1       -6.946444   1.000000
    2       -5.313940   1.000000
    3       -4.509153   1.000000
    4        0.887571   1.000000
    5        1.319371   1.000000
    6        1.985337   1.000000
    7        2.519614   1.000000
    8        4.569200   1.000000
    9        4.752132   1.000000
   10        6.384693   0.000000
   11        6.464061   0.000000
   12        8.681974   0.000000
   13        8.917964   0.000000
   14       12.368583   0.000000

 -0.2857143E+00  0.4440892E-15  0.3742002E-15  0.4081633E-02
    1       -7.360406   1.000000
    2       -4.950763   1.000000
    3       -4.575038   1.000000
    4        1.003237   1.000000
    5        1.647921   1.000000
    6        2.160623   1.000000
    7        3.732715   1.000000
    8        4.593289   1.000000
    9        4.756122   1.000000
   10        6.377098   0.000000
   11        6.562450   0.000000
   12        7.702637   0.000000
   13        9.224492   0.000000
   14       11.082952   0.000000

 -0.1428571E+00  0.3747003E-15  0.3742002E-15  0.4081633E-02
    1       -7.714481   1.000000
    2       -4.727224   1.000000
    3       -4.647972   1.000000
    4        1.739426   1.000000
    5        2.276944   1.000000
    6        2.580501   1.000000
    7        4.251768   1.000000
    8        4.570268   1.000000
    9        4.886155   1.000000
   10        6.256791   0.000000
   11        6.445214   0.000000
   12        6.948318   0.000000
   13       10.145405   0.000000
   14       10.542907   0.000000

  0.3469447E-15  0.1428571E+00  0.3742002E-15  0.4081633E-02
    1       -7.714481   1.000000
    2       -4.727224   1.000000
    3       -4.647973   1.000000
    4        1.739426   1.000000
    5        2.276944   1.000000
    6        2.580501   1.000000
    7        4.251768   1.000000
    8        4.570268   1.000000
    9        4.886155   1.000000
   10        6.256791   0.000000
   11        6.445214   0.000000
   12        6.948318   0.000000
   13       10.145405   0.000000
   14       10.542907   0.000000

  0.1428571E+00  0.1428571E+00  0.3742002E-15  0.4081633E-02
    1       -7.471388   1.000000
    2       -4.829652   1.000000
    3       -4.637798   1.000000
    4        1.237546   1.000000
    5        1.495425   1.000000
    6        2.659800   1.000000
    7        3.877870   1.000000
    8        4.518644   1.000000
    9        4.519255   1.000000
   10        6.637561   0.000000
   11        6.834101   0.000000
   12        7.183625   0.000000
   13        9.925217   0.000000
   14       10.087588   0.000000

  0.2857143E+00  0.1428571E+00  0.3742002E-15  0.4081633E-02
    1       -7.068292   1.000000
    2       -5.096405   1.000000
    3       -4.641728   1.000000
    4        0.961714   1.000000
    5        1.221657   1.000000
    6        2.286370   1.000000
    7        3.148233   1.000000
    8        3.851562   1.000000
    9        4.125924   1.000000
   10        7.055585   0.000000
   11        7.280735   0.000000
   12        8.235546   0.000000
   13        9.384767   0.000000
   14       10.794708   0.000000

  0.4285714E+00  0.1428571E+00  0.3742002E-15  0.4081633E-02
    1       -6.809933   1.000000
    2       -5.321203   1.000000
    3       -4.639135   1.000000
    4        1.001426   1.000000
    5        1.259699   1.000000
    6        2.195289   1.000000
    7        2.294851   1.000000
    8        3.868302   1.000000
    9        3.933275   1.000000
   10        7.094238   0.000000
   11        7.353866   0.000000
   12        8.967819   0.000000
   13        9.169580   0.000000
   14       12.018705   0.000000

 -0.4285714E+00  0.1428571E+00  0.3742002E-15  0.4081633E-02
    1       -7.068292   1.000000
    2       -5.096405   1.000000
    3       -4.641728   1.000000
    4        0.961714   1.000000
    5        1.221657   1.000000
    6        2.286370   1.000000
    7        3.148233   1.000000
    8        3.851562   1.000000
    9        4.125924   1.000000
   10        7.055585   0.000000
   11        7.280735   0.000000
   12        8.235546   0.000000
   13        9.384767   0.000000
   14       10.794708   0.000000

 -0.2857143E+00  0.1428571E+00  0.3742002E-15  0.4081633E-02
    1       -7.471388   1.000000
    2       -4.829652   1.000000
    3       -4.637798   1.000000
    4        1.237546   1.000000
    5        1.495425   1.000000
    6        2.659800   1.000000
    7        3.877870   1.000000
    8        4.518644   1.000000
    9        4.519255   1.000000
   10        6.637561   0.000000
   11        6.834101   0.000000
   12        7.183625   0.000000
   13        9.925217   0.000000
   14       10.087588   0.000000

 -0.1428571E+00  0.1428571E+00  0.3742002E-15  0.4081633E-02
    1       -7.714481   1.000000
    2       -4.727224   1.000000
    3       -4.647973   1.000000
    4        1.739426   1.000000
    5        2.276944   1.000000
    6        2.580501   1.000000
    7        4.251768   1.000000
    8        4.570268   1.000000
    9        4.886155   1.000000
   10        6.256791   0.000000
   11        6.445214   0.000000
   12        6.948318   0.000000
   13       10.145405   0.000000
   14       10.542907   0.000000

  0.3608225E-15  0.2857143E+00  0.3742002E-15  0.4081633E-02
    1       -7.360406   1.000000
    2       -4.950763   1.000000
    3       -4.575039   1.000000
    4        1.003237   1.000000
    5        1.647921   1.000000
    6        2.160623   1.000000
    7        3.732715   1.000000
    8        4.593289   1.000000
    9        4.756122   1.000000
   10        6.377098   0.000000
   11        6.562450   0.000000
   12        7.702637   0.000000
   13        9.224491   0.000000
   14       11.082951   0.000000

  0.1428571E+00  0.2857143E+00  0.3742002E-15  0.4081633E-02
    1       -7.068292   1.000000
    2       -5.096404   1.000000
    3       -4.641728   1.000000
    4        0.961714   1.000000
    5        1.221657   1.000000
    6        2.286370   1.000000
    7        3.148233   1.000000
    8        3.851562   1.000000
    9        4.125924   1.000000
   10        7.055585   0.000000
   11        7.280735   0.000000
   12        8.235546   0.000000
   13        9.384766   0.000000
   14       10.794708   0.000000

  0.2857143E+00  0.2857143E+00  0.3742002E-15  0.4081633E-02
    1       -6.762260   1.000000
    2       -5.140842   1.000000
    3       -4.885344   1.000000
    4        1.172001   1.000000
    5        1.181206   1.000000
    6        2.377164   1.000000
    7        2.774613   1.000000
    8        3.021836   1.000000
    9        3.183793   1.000000
   10        7.956430   0.000000
   11        8.275002   0.000000
   12        8.444147   0.000000
   13       10.191221   0.000000
   14       10.765527   0.000000

  0.4285714E+00  0.2857143E+00  0.3742002E-15  0.4081633E-02
    1       -6.762260   1.000000
    2       -5.140842   1.000000
    3       -4.885344   1.000000
    4        1.172001   1.000000
    5        1.181206   1.000000
    6        2.377164   1.000000
    7        2.774613   1.000000
    8        3.021836   1.000000
    9        3.183793   1.000000
   10        7.956430   0.000000
   11        8.275002   0.000000
   12        8.444147   0.000000
   13       10.191221   0.000000
   14       10.765527   0.000000

 -0.4285714E+00  0.2857143E+00  0.3742002E-15  0.4081633E-02
    1       -7.068292   1.000000
    2       -5.096404   1.000000
    3       -4.641728   1.000000
    4        0.961714   1.000000
    5        1.221657   1.000000
    6        2.286370   1.000000
    7        3.148233   1.000000
    8        3.851562   1.000000
    9        4.125924   1.000000
   10        7.055585   0.000000
   11        7.280735   0.000000
   12        8.235546   0.000000
   13        9.384766   0.000000
   14       10.794708   0.000000

 -0.2857143E+00  0.2857143E+00  0.3742002E-15  0.4081633E-02
    1       -7.360406   1.000000
    2       -4.950763   1.000000
    3       -4.575039   1.000000
    4        1.003237   1.000000
    5        1.647921   1.000000
    6        2.160623   1.000000
    7        3.732715   1.000000
    8        4.593289   1.000000
    9        4.756122   1.000000
   10        6.377098   0.000000
   11        6.562450   0.000000
   12        7.702637   0.000000
   13        9.224491   0.000000
   14       11.082951   0.000000

 -0.1428571E+00  0.2857143E+00  0.3742002E-15  0.4081633E-02
    1       -7.471388   1.000000
    2       -4.829652   1.000000
    3       -4.637799   1.000000
    4        1.237546   1.000000
    5        1.495425   1.000000
    6        2.659800   1.000000
    7        3.877871   1.000000
    8        4.518644   1.000000
    9        4.519254   1.000000
   10        6.637561   0.000000
   11        6.834101   0.000000
   12        7.183625   0.000000
   13        9.925217   0.000000
   14       10.087588   0.000000

  0.3885781E-15  0.4285714E+00  0.3742002E-15  0.4081633E-02
    1       -6.946444   1.000000
    2       -5.313939   1.000000
    3       -4.509154   1.000000
    4        0.887571   1.000000
    5        1.319371   1.000000
    6        1.985337   1.000000
    7        2.519614   1.000000
    8        4.569200   1.000000
    9        4.752132   1.000000
   10        6.384693   0.000000
   11        6.464061   0.000000
   12        8.681974   0.000000
   13        8.917964   0.000000
   14       12.368583   0.000000

  0.1428571E+00  0.4285714E+00  0.3742002E-15  0.4081633E-02
    1       -6.809933   1.000000
    2       -5.321202   1.000000
    3       -4.639135   1.000000
    4        1.001426   1.000000
    5        1.259699   1.000000
    6        2.195289   1.000000
    7        2.294851   1.000000
    8        3.868302   1.000000
    9        3.933275   1.000000
   10        7.094238   0.000000
   11        7.353866   0.000000
   12        8.967819   0.000000
   13        9.169580   0.000000
   14       12.018705   0.000000

  0.2857143E+00  0.4285714E+00  0.3742002E-15  0.4081633E-02
    1       -6.762260   1.000000
    2       -5.140842   1.000000
    3       -4.885344   1.000000
    4        1.172001   1.000000
    5        1.181206   1.000000
    6        2.377164   1.000000
    7        2.774613   1.000000
    8        3.021835   1.000000
    9        3.183793   1.000000
   10        7.956430   0.000000
   11        8.275002   0.000000
   12        8.444147   0.000000
   13       10.191222   0.000000
   14       10.765526   0.000000

  0.4285714E+00  0.4285714E+00  0.3742002E-15  0.4081633E-02
    1       -6.809933   1.000000
    2       -5.321202   1.000000
    3       -4.639135   1.000000
    4        1.001426   1.000000
    5        1.259699   1.000000
    6        2.195289   1.000000
    7        2.294851   1.000000
    8        3.868302   1.000000
    9        3.933275   1.000000
   10        7.094238   0.000000
   11        7.353866   0.000000
   12        8.967819   0.000000
   13        9.169580   0.000000
   14       12.018705   0.000000

 -0.4285714E+00  0.4285714E+00  0.3742002E-15  0.4081633E-02
    1       -6.946444   1.000000
    2       -5.313939   1.000000
    3       -4.509154   1.000000
    4        0.887571   1.000000
    5        1.319371   1.000000
    6        1.985337   1.000000
    7        2.519614   1.000000
    8        4.569200   1.000000
    9        4.752132   1.000000
   10        6.384693   0.000000
   11        6.464061   0.000000
   12        8.681974   0.000000
   13        8.917964   0.000000
   14       12.368583   0.000000

 -0.2857143E+00  0.4285714E+00  0.3742002E-15  0.4081633E-02
    1       -7.068292   1.000000
    2       -5.096404   1.000000
    3       -4.641728   1.000000
    4        0.961714   1.000000
    5        1.221657   1.000000
    6        2.286370   1.000000
    7        3.148233   1.000000
    8        3.851562   1.000000
    9        4.125924   1.000000
   10        7.055585   0.000000
   11        7.280735   0.000000
   12        8.235546   0.000000
   13        9.384766   0.000000
   14       10.794708   0.000000

 -0.1428571E+00  0.4285714E+00  0.3742002E-15  0.4081633E-02
    1       -7.068292   1.000000
    2       -5.096404   1.000000
    3       -4.641728   1.000000
    4        0.961714   1.000000
    5        1.221657   1.000000
    6        2.286370   1.000000
    7        3.148233   1.000000
    8        3.851562   1.000000
    9        4.125924   1.000000
   10        7.055585   0.000000
   11        7.280735   0.000000
   12        8.235546   0.000000
   13        9.384767   0.000000
   14       10.794708   0.000000

  0.3885781E-15 -0.4285714E+00  0.3742002E-15  0.4081633E-02
    1       -6.946444   1.000000
    2       -5.313939   1.000000
    3       -4.509154   1.000000
    4        0.887571   1.000000
    5        1.319371   1.000000
    6        1.985337   1.000000
    7        2.519614   1.000000
    8        4.569200   1.000000
    9        4.752132   1.000000
   10        6.384693   0.000000
   11        6.464061   0.000000
   12        8.681974   0.000000
   13        8.917964   0.000000
   14       12.368583   0.000000

  0.1428571E+00 -0.4285714E+00  0.3742002E-15  0.4081633E-02
    1       -7.068292   1.000000
    2       -5.096404   1.000000
    3       -4.641728   1.000000
    4        0.961714   1.000000
    5        1.221657   1.000000
    6        2.286370   1.000000
    7        3.148233   1.000000
    8        3.851562   1.000000
    9        4.125924   1.000000
   10        7.055585   0.000000
   11        7.280735   0.000000
   12        8.235546   0.000000
   13        9.384767   0.000000
   14       10.794708   0.000000

  0.2857143E+00 -0.4285714E+00  0.3742002E-15  0.4081633E-02
    1       -7.068292   1.000000
    2       -5.096404   1.000000
    3       -4.641728   1.000000
    4        0.961714   1.000000
    5        1.221657   1.000000
    6        2.286370   1.000000
    7        3.148233   1.000000
    8        3.851562   1.000000
    9        4.125924   1.000000
   10        7.055585   0.000000
   11        7.280735   0.000000
   12        8.235546   0.000000
   13        9.384766   0.000000
   14       10.794708   0.000000

  0.4285714E+00 -0.4285714E+00  0.3742002E-15  0.4081633E-02
    1       -6.946444   1.000000
    2       -5.313939   1.000000
    3       -4.509154   1.000000
    4        0.887571   1.000000
    5        1.319371   1.000000
    6        1.985337   1.000000
    7        2.519614   1.000000
    8        4.569200   1.000000
    9        4.752132   1.000000
   10        6.384693   0.000000
   11        6.464061   0.000000
   12        8.681974   0.000000
   13        8.917964   0.000000
   14       12.368583   0.000000

 -0.4285714E+00 -0.4285714E+00  0.3742002E-15  0.4081633E-02
    1       -6.809933   1.000000
    2       -5.321202   1.000000
    3       -4.639135   1.000000
    4        1.001426   1.000000
    5        1.259699   1.000000
    6        2.195289   1.000000
    7        2.294851   1.000000
    8        3.868302   1.000000
    9        3.933275   1.000000
   10        7.094238   0.000000
   11        7.353866   0.000000
   12        8.967819   0.000000
   13        9.169580   0.000000
   14       12.018705   0.000000

 -0.2857143E+00 -0.4285714E+00  0.3742002E-15  0.4081633E-02
    1       -6.762260   1.000000
    2       -5.140842   1.000000
    3       -4.885344   1.000000
    4        1.172001   1.000000
    5        1.181206   1.000000
    6        2.377164   1.000000
    7        2.774613   1.000000
    8        3.021835   1.000000
    9        3.183793   1.000000
   10        7.956430   0.000000
   11        8.275002   0.000000
   12        8.444147   0.000000
   13       10.191222   0.000000
   14       10.765526   0.000000

 -0.1428571E+00 -0.4285714E+00  0.3742002E-15  0.4081633E-02
    1       -6.809933   1.000000
    2       -5.321202   1.000000
    3       -4.639135   1.000000
    4        1.001426   1.000000
    5        1.259699   1.000000
    6        2.195289   1.000000
    7        2.294851   1.000000
    8        3.868302   1.000000
    9        3.933275   1.000000
   10        7.094238   0.000000
   11        7.353866   0.000000
   12        8.967819   0.000000
   13        9.169580   0.000000
   14       12.018705   0.000000

  0.4440892E-15 -0.2857143E+00  0.3742002E-15  0.4081633E-02
    1       -7.360406   1.000000
    2       -4.950763   1.000000
    3       -4.575039   1.000000
    4        1.003237   1.000000
    5        1.647921   1.000000
    6        2.160623   1.000000
    7        3.732715   1.000000
    8        4.593289   1.000000
    9        4.756122   1.000000
   10        6.377098   0.000000
   11        6.562450   0.000000
   12        7.702637   0.000000
   13        9.224491   0.000000
   14       11.082951   0.000000

  0.1428571E+00 -0.2857143E+00  0.3742002E-15  0.4081633E-02
    1       -7.471388   1.000000
    2       -4.829652   1.000000
    3       -4.637799   1.000000
    4        1.237546   1.000000
    5        1.495425   1.000000
    6        2.659800   1.000000
    7        3.877871   1.000000
    8        4.518644   1.000000
    9        4.519254   1.000000
   10        6.637561   0.000000
   11        6.834101   0.000000
   12        7.183625   0.000000
   13        9.925217   0.000000
   14       10.087588   0.000000

  0.2857143E+00 -0.2857143E+00  0.3742002E-15  0.4081633E-02
    1       -7.360406   1.000000
    2       -4.950763   1.000000
    3       -4.575039   1.000000
    4        1.003237   1.000000
    5        1.647921   1.000000
    6        2.160623   1.000000
    7        3.732715   1.000000
    8        4.593289   1.000000
    9        4.756122   1.000000
   10        6.377098   0.000000
   11        6.562450   0.000000
   12        7.702637   0.000000
   13        9.224491   0.000000
   14       11.082951   0.000000

  0.4285714E+00 -0.2857143E+00  0.3742002E-15  0.4081633E-02
    1       -7.068292   1.000000
    2       -5.096404   1.000000
    3       -4.641728   1.000000
    4        0.961714   1.000000
    5        1.221657   1.000000
    6        2.286370   1.000000
    7        3.148233   1.000000
    8        3.851562   1.000000
    9        4.125924   1.000000
   10        7.055585   0.000000
   11        7.280735   0.000000
   12        8.235546   0.000000
   13        9.384766   0.000000
   14       10.794708   0.000000

 -0.4285714E+00 -0.2857143E+00  0.3742002E-15  0.4081633E-02
    1       -6.762260   1.000000
    2       -5.140842   1.000000
    3       -4.885344   1.000000
    4        1.172001   1.000000
    5        1.181206   1.000000
    6        2.377164   1.000000
    7        2.774613   1.000000
    8        3.021836   1.000000
    9        3.183793   1.000000
   10        7.956430   0.000000
   11        8.275002   0.000000
   12        8.444147   0.000000
   13       10.191221   0.000000
   14       10.765527   0.000000

 -0.2857143E+00 -0.2857143E+00  0.3742002E-15  0.4081633E-02
    1       -6.762260   1.000000
    2       -5.140842   1.000000
    3       -4.885344   1.000000
    4        1.172001   1.000000
    5        1.181206   1.000000
    6        2.377164   1.000000
    7        2.774613   1.000000
    8        3.021836   1.000000
    9        3.183793   1.000000
   10        7.956430   0.000000
   11        8.275002   0.000000
   12        8.444147   0.000000
   13       10.191221   0.000000
   14       10.765527   0.000000

 -0.1428571E+00 -0.2857143E+00  0.3742002E-15  0.4081633E-02
    1       -7.068292   1.000000
    2       -5.096404   1.000000
    3       -4.641728   1.000000
    4        0.961714   1.000000
    5        1.221657   1.000000
    6        2.286370   1.000000
    7        3.148233   1.000000
    8        3.851562   1.000000
    9        4.125924   1.000000
   10        7.055585   0.000000
   11        7.280735   0.000000
   12        8.235546   0.000000
   13        9.384766   0.000000
   14       10.794708   0.000000

  0.3747003E-15 -0.1428571E+00  0.3742002E-15  0.4081633E-02
    1       -7.714481   1.000000
    2       -4.727224   1.000000
    3       -4.647973   1.000000
    4        1.739426   1.000000
    5        2.276944   1.000000
    6        2.580501   1.000000
    7        4.251768   1.000000
    8        4.570268   1.000000
    9        4.886155   1.000000
   10        6.256791   0.000000
   11        6.445214   0.000000
   12        6.948318   0.000000
   13       10.145405   0.000000
   14       10.542907   0.000000

  0.1428571E+00 -0.1428571E+00  0.3742002E-15  0.4081633E-02
    1       -7.714481   1.000000
    2       -4.727224   1.000000
    3       -4.647973   1.000000
    4        1.739426   1.000000
    5        2.276944   1.000000
    6        2.580501   1.000000
    7        4.251768   1.000000
    8        4.570268   1.000000
    9        4.886155   1.000000
   10        6.256791   0.000000
   11        6.445214   0.000000
   12        6.948318   0.000000
   13       10.145405   0.000000
   14       10.542907   0.000000

  0.2857143E+00 -0.1428571E+00  0.3742002E-15  0.4081633E-02
    1       -7.471388   1.000000
    2       -4.829652   1.000000
    3       -4.637798   1.000000
    4        1.237546   1.000000
    5        1.495425   1.000000
    6        2.659800   1.000000
    7        3.877870   1.000000
    8        4.518644   1.000000
    9        4.519255   1.000000
   10        6.637561   0.000000
   11        6.834101   0.000000
   12        7.183625   0.000000
   13        9.925217   0.000000
   14       10.087588   0.000000

  0.4285714E+00 -0.1428571E+00  0.3742002E-15  0.4081633E-02
    1       -7.068292   1.000000
    2       -5.096405   1.000000
    3       -4.641728   1.000000
    4        0.961714   1.000000
    5        1.221657   1.000000
    6        2.286370   1.000000
    7        3.148233   1.000000
    8        3.851562   1.000000
    9        4.125924   1.000000
   10        7.055585   0.000000
   11        7.280735   0.000000
   12        8.235546   0.000000
   13        9.384767   0.000000
   14       10.794708   0.000000

 -0.4285714E+00 -0.1428571E+00  0.3742002E-15  0.4081633E-02
    1       -6.809933   1.000000
    2       -5.321203   1.000000
    3       -4.639135   1.000000
    4        1.001426   1.000000
    5        1.259699   1.000000
    6        2.195289   1.000000
    7        2.294851   1.000000
    8        3.868302   1.000000
    9        3.933275   1.000000
   10        7.094238   0.000000
   11        7.353866   0.000000
   12        8.967819   0.000000
   13        9.169580   0.000000
   14       12.018705   0.000000

 -0.2857143E+00 -0.1428571E+00  0.3742002E-15  0.4081633E-02
    1       -7.068292   1.000000
    2       -5.096405   1.000000
    3       -4.641728   1.000000
    4        0.961714   1.000000
    5        1.221657   1.000000
    6        2.286370   1.000000
    7        3.148233   1.000000
    8        3.851562   1.000000
    9        4.125924   1.000000
   10        7.055585   0.000000
   11        7.280735   0.000000
   12        8.235546   0.000000
   13        9.384767   0.000000
   14       10.794708   0.000000

 -0.1428571E+00 -0.1428571E+00  0.3742002E-15  0.4081633E-02
    1       -7.471388   1.000000
    2       -4.829652   1.000000
    3       -4.637798   1.000000
    4        1.237546   1.000000
    5        1.495425   1.000000
    6        2.659800   1.000000
    7        3.877870   1.000000
    8        4.518644   1.000000
    9        4.519255   1.000000
   10        6.637561   0.000000
   11        6.834101   0.000000
   12        7.183625   0.000000
   13        9.925217   0.000000
   14       10.087588   0.000000

  0.3742002E-15  0.3742002E-15  0.2000000E+00  0.4081633E-02
    1       -7.703713   1.000000
    2       -5.722662   1.000000
    3       -3.621036   1.000000
    4        2.315234   1.000000
    5        2.634774   1.000000
    6        3.063063   1.000000
    7        4.028253   1.000000
    8        4.053497   1.000000
    9        4.710152   1.000000
   10        6.283330   0.000000
   11        6.338870   0.000000
   12        6.723671   0.000000
   13       10.162628   0.000000
   14       11.181916   0.000000

  0.1428571E+00  0.3469447E-15  0.2000000E+00  0.4081633E-02
    1       -7.576380   1.000000
    2       -5.674510   1.000000
    3       -3.723119   1.000000
    4        1.869639   1.000000
    5        1.930560   1.000000
    6        2.694124   1.000000
    7        4.435418   1.000000
    8        4.593010   1.000000
    9        4.753285   1.000000
   10        6.164172   0.000000
   11        6.213506   0.000000
   12        6.897480   0.000000
   13        9.684666   0.000000
   14       11.295874   0.000000

  0.2857143E+00  0.3608225E-15  0.2000000E+00  0.4081633E-02
    1       -7.225716   1.000000
    2       -5.613535   1.000000
    3       -3.981042   1.000000
    4        0.842468   1.000000
    5        1.418471   1.000000
    6        2.264975   1.000000
    7        4.347901   1.000000
    8        4.482848   1.000000
    9        5.061792   1.000000
   10        6.191146   0.000000
   11        6.659490   0.000000
   12        6.902647   0.000000
   13        9.074719   0.000000
   14       11.788120   0.000000

  0.4285714E+00  0.3885781E-15  0.2000000E+00  0.4081633E-02
    1       -6.826526   1.000000
    2       -5.621993   1.000000
    3       -4.314277   1.000000
    4        0.524806   1.000000
    5        1.171675   1.000000
    6        2.029266   1.000000
    7        3.772297   1.000000
    8        4.197303   1.000000
    9        4.315617   1.000000
   10        6.543853   0.000000
   11        7.039115   0.000000
   12        7.909638   0.000000
   13        8.982746   0.000000
   14       12.506238   0.000000

 -0.4285714E+00  0.3885781E-15  0.2000000E+00  0.4081633E-02
    1       -6.853246   1.000000
    2       -5.474341   1.000000
    3       -4.506710   1.000000
    4        0.980171   1.000000
    5        1.236346   1.000000
    6        2.106676   1.000000
    7        2.847007   1.000000
    8        4.041528   1.000000
    9        4.278841   1.000000
   10        6.671942   0.000000
   11        7.255381   0.000000
   12        8.737347   0.000000
   13        9.315077   0.000000
   14       11.902400   0.000000

 -0.2857143E+00  0.4440892E-15  0.2000000E+00  0.4081633E-02
    1       -7.242378   1.000000
    2       -5.493600   1.000000
    3       -4.183265   1.000000
    4        1.377971   1.000000
    5        1.848604   1.000000
    6        2.468744   1.000000
    7        2.842559   1.000000
    8        3.974125   1.000000
    9        4.361934   1.000000
   10        6.783347   0.000000
   11        7.318536   0.000000
   12        8.243694   0.000000
   13        9.965854   0.000000
   14       10.948943   0.000000

 -0.1428571E+00  0.3747003E-15  0.2000000E+00  0.4081633E-02
    1       -7.578611   1.000000
    2       -5.657411   1.000000
    3       -3.760531   1.000000
    4        1.802664   1.000000
    5        2.424778   1.000000
    6        2.785666   1.000000
    7        3.884107   1.000000
    8        4.162598   1.000000
    9        4.371288   1.000000
   10        6.623017   0.000000
   11        6.720018   0.000000
   12        7.105391   0.000000
   13       10.203912   0.000000
   14       10.842880   0.000000

  0.3469447E-15  0.1428571E+00  0.2000000E+00  0.4081633E-02
    1       -7.578611   1.000000
    2       -5.657411   1.000000
    3       -3.760531   1.000000
    4        1.802664   1.000000
    5        2.424777   1.000000
    6        2.785666   1.000000
    7        3.884107   1.000000
    8        4.162597   1.000000
    9        4.371288   1.000000
   10        6.623017   0.000000
   11        6.720018   0.000000
   12        7.105391   0.000000