Automatically generated mesh
     245
Reciprocal lattice
    0.00000000000000    0.00000000000000    0.00000000000000             1
    0.14285714285714    0.00000000000000    0.00000000000000             1
    0.28571428571429    0.00000000000000    0.00000000000000             1
    0.42857142857143    0.00000000000000    0.00000000000000             1
   -0.42857142857143    0.00000000000000    0.00000000000000             1
   -0.28571428571429    0.00000000000000    0.00000000000000             1
   -0.14285714285714    0.00000000000000    0.00000000000000             1
    0.00000000000000    0.14285714285714    0.00000000000000             1
    0.14285714285714    0.14285714285714    0.00000000000000             1
    0.28571428571429    0.14285714285714    0.00000000000000             1
    0.42857142857143    0.14285714285714    0.00000000000000             1
   -0.42857142857143    0.14285714285714    0.00000000000000             1
   -0.28571428571429    0.14285714285714    0.00000000000000             1
   -0.14285714285714    0.14285714285714    0.00000000000000             1
    0.00000000000000    0.28571428571429    0.00000000000000             1
    0.14285714285714    0.28571428571429    0.00000000000000             1
    0.28571428571429    0.28571428571429    0.00000000000000             1
    0.42857142857143    0.28571428571429    0.00000000000000             1
   -0.42857142857143    0.28571428571429    0.00000000000000             1
   -0.28571428571429    0.28571428571429    0.00000000000000             1
   -0.14285714285714    0.28571428571429    0.00000000000000             1
    0.00000000000000    0.42857142857143    0.00000000000000             1
    0.14285714285714    0.42857142857143    0.00000000000000             1
    0.28571428571429    0.42857142857143    0.00000000000000             1
    0.42857142857143    0.42857142857143    0.00000000000000             1
   -0.42857142857143    0.42857142857143    0.00000000000000             1
   -0.28571428571429    0.42857142857143    0.00000000000000             1
   -0.14285714285714    0.42857142857143    0.00000000000000             1
    0.00000000000000   -0.42857142857143    0.00000000000000             1
    0.14285714285714   -0.42857142857143    0.00000000000000             1
    0.28571428571429   -0.42857142857143    0.00000000000000             1
    0.42857142857143   -0.42857142857143    0.00000000000000             1
   -0.42857142857143   -0.42857142857143    0.00000000000000             1
   -0.28571428571429   -0.42857142857143    0.00000000000000             1
   -0.14285714285714   -0.42857142857143    0.00000000000000             1
    0.00000000000000   -0.28571428571429    0.00000000000000             1
    0.14285714285714   -0.28571428571429    0.00000000000000             1
    0.28571428571429   -0.28571428571429    0.00000000000000             1
    0.42857142857143   -0.28571428571429    0.00000000000000             1
   -0.42857142857143   -0.28571428571429    0.00000000000000             1
   -0.28571428571429   -0.28571428571429    0.00000000000000             1
   -0.14285714285714   -0.28571428571429    0.00000000000000             1
    0.00000000000000   -0.14285714285714    0.00000000000000             1
    0.14285714285714   -0.14285714285714    0.00000000000000             1
    0.28571428571429   -0.14285714285714    0.00000000000000             1
    0.42857142857143   -0.14285714285714    0.00000000000000             1
   -0.42857142857143   -0.14285714285714    0.00000000000000             1
   -0.28571428571429   -0.14285714285714    0.00000000000000             1
   -0.14285714285714   -0.14285714285714    0.00000000000000             1
    0.00000000000000    0.00000000000000    0.20000000000000             1
    0.14285714285714    0.00000000000000    0.20000000000000             1
    0.28571428571429    0.00000000000000    0.20000000000000             1
    0.42857142857143    0.00000000000000    0.20000000000000             1
   -0.42857142857143    0.00000000000000    0.20000000000000             1
   -0.28571428571429    0.00000000000000    0.20000000000000             1
   -0.14285714285714    0.00000000000000    0.20000000000000             1
    0.00000000000000    0.14285714285714    0.20000000000000             1
    0.14285714285714    0.14285714285714    0.20000000000000             1
    0.28571428571429    0.14285714285714    0.20000000000000             1
    0.42857142857143    0.14285714285714    0.20000000000000             1
   -0.42857142857143    0.14285714285714    0.20000000000000             1
   -0.28571428571429    0.14285714285714    0.20000000000000             1
   -0.14285714285714    0.14285714285714    0.20000000000000             1
    0.00000000000000    0.28571428571429    0.20000000000000             1
    0.14285714285714    0.28571428571429    0.20000000000000             1
    0.28571428571429    0.28571428571429    0.20000000000000             1
    0.42857142857143    0.28571428571429    0.20000000000000             1
   -0.42857142857143    0.28571428571429    0.20000000000000             1
   -0.28571428571429    0.28571428571429    0.20000000000000             1
   -0.14285714285714    0.28571428571429    0.20000000000000             1
    0.00000000000000    0.42857142857143    0.20000000000000             1
    0.14285714285714    0.42857142857143    0.20000000000000             1
    0.28571428571429    0.42857142857143    0.20000000000000             1
    0.42857142857143    0.42857142857143    0.20000000000000             1
   -0.42857142857143    0.42857142857143    0.20000000000000             1
   -0.28571428571429    0.42857142857143    0.20000000000000             1
   -0.14285714285714    0.42857142857143    0.20000000000000             1
    0.00000000000000   -0.42857142857143    0.20000000000000             1
    0.14285714285714   -0.42857142857143    0.20000000000000             1
    0.28571428571429   -0.42857142857143    0.20000000000000             1
    0.42857142857143   -0.42857142857143    0.20000000000000             1
   -0.42857142857143   -0.42857142857143    0.20000000000000             1
   -0.28571428571429   -0.42857142857143    0.20000000000000             1
   -0.14285714285714   -0.42857142857143    0.20000000000000             1
    0.00000000000000   -0.28571428571429    0.20000000000000             1
    0.14285714285714   -0.28571428571429    0.20000000000000             1
    0.28571428571429   -0.28571428571429    0.20000000000000             1
    0.42857142857143   -0.28571428571429    0.20000000000000             1
   -0.42857142857143   -0.28571428571429    0.20000000000000             1
   -0.28571428571429   -0.28571428571429    0.20000000000000             1
   -0.14285714285714   -0.28571428571429    0.20000000000000             1
    0.00000000000000   -0.14285714285714    0.20000000000000             1
    0.14285714285714   -0.14285714285714    0.20000000000000             1
    0.28571428571429   -0.14285714285714    0.20000000000000             1
    0.42857142857143   -0.14285714285714    0.20000000000000             1
   -0.42857142857143   -0.14285714285714    0.20000000000000             1
   -0.28571428571429   -0.14285714285714    0.20000000000000             1
   -0.14285714285714   -0.14285714285714    0.20000000000000             1
    0.00000000000000    0.00000000000000    0.40000000000000             1
    0.14285714285714    0.00000000000000    0.40000000000000             1
    0.28571428571429    0.00000000000000    0.40000000000000             1
    0.42857142857143    0.00000000000000    0.40000000000000             1
   -0.42857142857143    0.00000000000000    0.40000000000000             1
   -0.28571428571429    0.00000000000000    0.40000000000000             1
   -0.14285714285714    0.00000000000000    0.40000000000000             1
    0.00000000000000    0.14285714285714    0.40000000000000             1
    0.14285714285714    0.14285714285714    0.40000000000000             1
    0.28571428571429    0.14285714285714    0.40000000000000             1
    0.42857142857143    0.14285714285714    0.40000000000000             1
   -0.42857142857143    0.14285714285714    0.40000000000000             1
   -0.28571428571429    0.14285714285714    0.40000000000000             1
   -0.14285714285714    0.14285714285714    0.40000000000000             1
    0.00000000000000    0.28571428571429    0.40000000000000             1
    0.14285714285714    0.28571428571429    0.40000000000000             1
    0.28571428571429    0.28571428571429    0.40000000000000             1
    0.42857142857143    0.28571428571429    0.40000000000000             1
   -0.42857142857143    0.28571428571429    0.40000000000000             1
   -0.28571428571429    0.28571428571429    0.40000000000000             1
   -0.14285714285714    0.28571428571429    0.40000000000000             1
    0.00000000000000    0.42857142857143    0.40000000000000             1
    0.14285714285714    0.42857142857143    0.40000000000000             1
    0.28571428571429    0.42857142857143    0.40000000000000             1
    0.42857142857143    0.42857142857143    0.40000000000000             1
   -0.42857142857143    0.42857142857143    0.40000000000000             1
   -0.28571428571429    0.42857142857143    0.40000000000000             1
   -0.14285714285714    0.42857142857143    0.40000000000000             1
    0.00000000000000   -0.42857142857143    0.40000000000000             1
    0.14285714285714   -0.42857142857143    0.40000000000000             1
    0.28571428571429   -0.42857142857143    0.40000000000000             1
    0.42857142857143   -0.42857142857143    0.40000000000000             1
   -0.42857142857143   -0.42857142857143    0.40000000000000             1
   -0.28571428571429   -0.42857142857143    0.40000000000000             1
   -0.14285714285714   -0.42857142857143    0.40000000000000             1
    0.00000000000000   -0.28571428571429    0.40000000000000             1
    0.14285714285714   -0.28571428571429    0.40000000000000             1
    0.28571428571429   -0.28571428571429    0.40000000000000             1
    0.42857142857143   -0.28571428571429    0.40000000000000             1
   -0.42857142857143   -0.28571428571429    0.40000000000000             1
   -0.28571428571429   -0.28571428571429    0.40000000000000             1
   -0.14285714285714   -0.28571428571429    0.40000000000000             1
    0.00000000000000   -0.14285714285714    0.40000000000000             1
    0.14285714285714   -0.14285714285714    0.40000000000000             1
    0.28571428571429   -0.14285714285714    0.40000000000000             1
    0.42857142857143   -0.14285714285714    0.40000000000000             1
   -0.42857142857143   -0.14285714285714    0.40000000000000             1
   -0.28571428571429   -0.14285714285714    0.40000000000000             1
   -0.14285714285714   -0.14285714285714    0.40000000000000             1
    0.00000000000000    0.00000000000000   -0.40000000000000             1
    0.14285714285714    0.00000000000000   -0.40000000000000             1
    0.28571428571429    0.00000000000000   -0.40000000000000             1
    0.42857142857143    0.00000000000000   -0.40000000000000             1
   -0.42857142857143    0.00000000000000   -0.40000000000000             1
   -0.28571428571429    0.00000000000000   -0.40000000000000             1
   -0.14285714285714    0.00000000000000   -0.40000000000000             1
    0.00000000000000    0.14285714285714   -0.40000000000000             1
    0.14285714285714    0.14285714285714   -0.40000000000000             1
    0.28571428571429    0.14285714285714   -0.40000000000000             1
    0.42857142857143    0.14285714285714   -0.40000000000000             1
   -0.42857142857143    0.14285714285714   -0.40000000000000             1
   -0.28571428571429    0.14285714285714   -0.40000000000000             1
   -0.14285714285714    0.14285714285714   -0.40000000000000             1
    0.00000000000000    0.28571428571429   -0.40000000000000             1
    0.14285714285714    0.28571428571429   -0.40000000000000             1
    0.28571428571429    0.28571428571429   -0.40000000000000             1
    0.42857142857143    0.28571428571429   -0.40000000000000             1
   -0.42857142857143    0.28571428571429   -0.40000000000000             1
   -0.28571428571429    0.28571428571429   -0.40000000000000             1
   -0.14285714285714    0.28571428571429   -0.40000000000000             1
    0.00000000000000    0.42857142857143   -0.40000000000000             1
    0.14285714285714    0.42857142857143   -0.40000000000000             1
    0.28571428571429    0.42857142857143   -0.40000000000000             1
    0.42857142857143    0.42857142857143   -0.40000000000000             1
   -0.42857142857143    0.42857142857143   -0.40000000000000             1
   -0.28571428571429    0.42857142857143   -0.40000000000000             1
   -0.14285714285714    0.42857142857143   -0.40000000000000             1
    0.00000000000000   -0.42857142857143   -0.40000000000000             1
    0.14285714285714   -0.42857142857143   -0.40000000000000             1
    0.28571428571429   -0.42857142857143   -0.40000000000000             1
    0.42857142857143   -0.42857142857143   -0.40000000000000             1
   -0.42857142857143   -0.42857142857143   -0.40000000000000             1
   -0.28571428571429   -0.42857142857143   -0.40000000000000             1
   -0.14285714285714   -0.42857142857143   -0.40000000000000             1
    0.00000000000000   -0.28571428571429   -0.40000000000000             1
    0.14285714285714   -0.28571428571429   -0.40000000000000             1
    0.28571428571429   -0.28571428571429   -0.40000000000000             1
    0.42857142857143   -0.28571428571429   -0.40000000000000             1
   -0.42857142857143   -0.28571428571429   -0.40000000000000             1
   -0.28571428571429   -0.28571428571429   -0.40000000000000             1
   -0.14285714285714   -0.28571428571429   -0.40000000000000             1
    0.00000000000000   -0.14285714285714   -0.40000000000000             1
    0.14285714285714   -0.14285714285714   -0.40000000000000             1
    0.28571428571429   -0.14285714285714   -0.40000000000000             1
    0.42857142857143   -0.14285714285714   -0.40000000000000             1
   -0.42857142857143   -0.14285714285714   -0.40000000000000             1
   -0.28571428571429   -0.14285714285714   -0.40000000000000             1
   -0.14285714285714   -0.14285714285714   -0.40000000000000             1
    0.00000000000000    0.00000000000000   -0.20000000000000             1
    0.14285714285714    0.00000000000000   -0.20000000000000             1
    0.28571428571429    0.00000000000000   -0.20000000000000             1
    0.42857142857143    0.00000000000000   -0.20000000000000             1
   -0.42857142857143    0.00000000000000   -0.20000000000000             1
   -0.28571428571429    0.00000000000000   -0.20000000000000             1
   -0.14285714285714    0.00000000000000   -0.20000000000000             1
    0.00000000000000    0.14285714285714   -0.20000000000000             1
    0.14285714285714    0.14285714285714   -0.20000000000000             1
    0.28571428571429    0.14285714285714   -0.20000000000000             1
    0.42857142857143    0.14285714285714   -0.20000000000000             1
   -0.42857142857143    0.14285714285714   -0.20000000000000             1
   -0.28571428571429    0.14285714285714   -0.20000000000000             1
   -0.14285714285714    0.14285714285714   -0.20000000000000             1
    0.00000000000000    0.28571428571429   -0.20000000000000             1
    0.14285714285714    0.28571428571429   -0.20000000000000             1
    0.28571428571429    0.28571428571429   -0.20000000000000             1
    0.42857142857143    0.28571428571429   -0.20000000000000             1
   -0.42857142857143    0.28571428571429   -0.20000000000000             1
   -0.28571428571429    0.28571428571429   -0.20000000000000             1
   -0.14285714285714    0.28571428571429   -0.20000000000000             1
    0.00000000000000    0.42857142857143   -0.20000000000000             1
    0.14285714285714    0.42857142857143   -0.20000000000000             1
    0.28571428571429    0.42857142857143   -0.20000000000000             1
    0.42857142857143    0.42857142857143   -0.20000000000000             1
   -0.42857142857143    0.42857142857143   -0.20000000000000             1
   -0.28571428571429    0.42857142857143   -0.20000000000000             1
   -0.14285714285714    0.42857142857143   -0.20000000000000             1
    0.00000000000000   -0.42857142857143   -0.20000000000000             1
    0.14285714285714   -0.42857142857143   -0.20000000000000             1
    0.28571428571429   -0.42857142857143   -0.20000000000000             1
    0.42857142857143   -0.42857142857143   -0.20000000000000             1
   -0.42857142857143   -0.42857142857143   -0.20000000000000             1
   -0.28571428571429   -0.42857142857143   -0.20000000000000             1
   -0.14285714285714   -0.42857142857143   -0.20000000000000             1
    0.00000000000000   -0.28571428571429   -0.20000000000000             1
    0.14285714285714   -0.28571428571429   -0.20000000000000             1
    0.28571428571429   -0.28571428571429   -0.20000000000000             1
    0.42857142857143   -0.28571428571429   -0.20000000000000             1
   -0.42857142857143   -0.28571428571429   -0.20000000000000             1
   -0.28571428571429   -0.28571428571429   -0.20000000000000             1
   -0.14285714285714   -0.28571428571429   -0.20000000000000             1
    0.00000000000000   -0.14285714285714   -0.20000000000000             1
    0.14285714285714   -0.14285714285714   -0.20000000000000             1
    0.28571428571429   -0.14285714285714   -0.20000000000000             1
    0.42857142857143   -0.14285714285714   -0.20000000000000             1
   -0.42857142857143   -0.14285714285714   -0.20000000000000             1
   -0.28571428571429   -0.14285714285714   -0.20000000000000             1
   -0.14285714285714   -0.14285714285714   -0.20000000000000             1
Tetrahedra
      1470    0.00068027210884
         1         1         2         8        51
         1         2         8         9        51
         1         8         9        51        58
         1         1         8        50        51
         1         8        50        51        57
         1         8        51        57        58
         1         2         3         9        52
         1         3         9        10        52
         1         9        10        52        59
         1         2         9        51        52
         1         9        51        52        58
         1         9        52        58        59
         1         3         4        10        53
         1         4        10        11        53
         1        10        11        53        60
         1         3        10        52        53
         1        10        52        53        59
         1        10        53        59        60
         1         4         5        11        54
         1         5        11        12        54
         1        11        12        54        61
         1         4        11        53        54
         1        11        53        54        60
         1        11        54        60        61
         1         5         6        12        55
         1         6        12        13        55
         1        12        13        55        62
         1         5        12        54        55
         1        12        54        55        61
         1        12        55        61        62
         1         6         7        13        56
         1         7        13        14        56
         1        13        14        56        63
         1         6        13        55        56
         1        13        55        56        62
         1        13        56        62        63
         1         1         7        14        50
         1         1         8        14        50
         1         8        14        50        57
         1         7        14        50        56
         1        14        50        56        63
         1        14        50        57        63
         1         8         9        15        58
         1         9        15        16        58
         1        15        16        58        65
         1         8        15        57        58
         1        15        57        58        64
         1        15        58        64        65
         1         9        10        16        59
         1        10        16        17        59
         1        16        17        59        66
         1         9        16        58        59
         1        16        58        59        65
         1        16        59        65        66
         1        10        11        17        60
         1        11        17        18        60
         1        17        18        60        67
         1        10        17        59        60
         1        17        59        60        66
         1        17        60        66        67
         1        11        12        18        61
         1        12        18        19        61
         1        18        19        61        68
         1        11        18        60        61
         1        18        60        61        67
         1        18        61        67        68
         1        12        13        19        62
         1        13        19        20        62
         1        19        20        62        69
         1        12        19        61        62
         1        19        61        62        68
         1        19        62        68        69
         1        13        14        20        63
         1        14        20        21        63
         1        20        21        63        70
         1        13        20        62        63
         1        20        62        63        69
         1        20        63        69        70
         1         8        14        21        57
         1         8        15        21        57
         1        15        21        57        64
         1        14        21        57        63
         1        21        57        63        70
         1        21        57        64        70
         1        15        16        22        65
         1        16        22        23        65
         1        22        23        65        72
         1        15        22        64        65
         1        22        64        65        71
         1        22        65        71        72
         1        16        17        23        66
         1        17        23        24        66
         1        23        24        66        73
         1        16        23        65        66
         1        23        65        66        72
         1        23        66        72        73
         1        17        18        24        67
         1        18        24        25        67
         1        24        25        67        74
         1        17        24        66        67
         1        24        66        67        73
         1        24        67        73        74
         1        18        19        25        68
         1        19        25        26        68
         1        25        26        68        75
         1        18        25        67        68
         1        25        67        68        74
         1        25        68        74        75
         1        19        20        26        69
         1        20        26        27        69
         1        26        27        69        76
         1        19        26        68        69
         1        26        68        69        75
         1        26        69        75        76
         1        20        21        27        70
         1        21        27        28        70
         1        27        28        70        77
         1        20        27        69        70
         1        27        69        70        76
         1        27        70        76        77
         1        15        21        28        64
         1        15        22        28        64
         1        22        28        64        71
         1        21        28        64        70
         1        28        64        70        77
         1        28        64        71        77
         1        22        23        29        72
         1        23        29        30        72
         1        29        30        72        79
         1        22        29        71        72
         1        29        71        72        78
         1        29        72        78        79
         1        23        24        30        73
         1        24        30        31        73
         1        30        31        73        80
         1        23        30        72        73
         1        30        72        73        79
         1        30        73        79        80
         1        24        25        31        74
         1        25        31        32        74
         1        31        32        74        81
         1        24        31        73        74
         1        31        73        74        80
         1        31        74        80        81
         1        25        26        32        75
         1        26        32        33        75
         1        32        33        75        82
         1        25        32        74        75
         1        32        74        75        81
         1        32        75        81        82
         1        26        27        33        76
         1        27        33        34        76
         1        33        34        76        83
         1        26        33        75        76
         1        33        75        76        82
         1        33        76        82        83
         1        27        28        34        77
         1        28        34        35        77
         1        34        35        77        84
         1        27        34        76        77
         1        34        76        77        83
         1        34        77        83        84
         1        22        28        35        71
         1        22        29        35        71
         1        29        35        71        78
         1        28        35        71        77
         1        35        71        77        84
         1        35        71        78        84
         1        29        30        36        79
         1        30        36        37        79
         1        36        37        79        86
         1        29        36        78        79
         1        36        78        79        85
         1        36        79        85        86
         1        30        31        37        80
         1        31        37        38        80
         1        37        38        80        87
         1        30        37        79        80
         1        37        79        80        86
         1        37        80        86        87
         1        31        32        38        81
         1        32        38        39        81
         1        38        39        81        88
         1        31        38        80        81
         1        38        80        81        87
         1        38        81        87        88
         1        32        33        39        82
         1        33        39        40        82
         1        39        40        82        89
         1        32        39        81        82
         1        39        81        82        88
         1        39        82        88        89
         1        33        34        40        83
         1        34        40        41        83
         1        40        41        83        90
         1        33        40        82        83
         1        40        82        83        89
         1        40        83        89        90
         1        34        35        41        84
         1        35        41        42        84
         1        41        42        84        91
         1        34        41        83        84
         1        41        83        84        90
         1        41        84        90        91
         1        29        35        42        78
         1        29        36        42        78
         1        36        42        78        85
         1        35        42        78        84
         1        42        78        84        91
         1        42        78        85        91
         1        36        37        43        86
         1        37        43        44        86
         1        43        44        86        93
         1        36        43        85        86
         1        43        85        86        92
         1        43        86        92        93
         1        37        38        44        87
         1        38        44        45        87
         1        44        45        87        94
         1        37        44        86        87
         1        44        86        87        93
         1        44        87        93        94
         1        38        39        45        88
         1        39        45        46        88
         1        45        46        88        95
         1        38        45        87        88