  COHP#  atomMU  atomNU     distance     translation      ICOHP (at) eF   for spin  1
      1     Te1     Te2      2.89100       0   0   1           -2.42500 
      2     Te1     Te3      2.89100       1   1   0           -2.42500 
      3     Te2     Te3      2.89100       1   1   0           -2.42500 
