 running on    2 total cores
 distrk:  each k-point on    2 cores,    1 groups
 distr:  one band on    1 cores,    2 groups
 using from now: INCAR     
 vasp.5.4.4.18Apr17-6-g9f103f2a35 (build May 21 2018 15:16:00) complex           
 POSCAR found type information on POSCAR  Te
 POSCAR found :  1 types and       3 ions
 scaLAPACK will be used
 LDA part: xc-table for Pade appr. of Perdew
 found WAVECAR, reading the header
  number of k-points has changed, file:    32 present:   245
  trying to continue reading WAVECAR, but it might fail
 POSCAR, INCAR and KPOINTS ok, starting setup
 FFT: planning ...
 reading WAVECAR
 the WAVECAR file was read successfully
 initial charge from wavefunction
 entering main loop
       N       E                     dE             d eps       ncg     rms          rms(c)
DAV:   1    -0.380382538368E+01   -0.38038E+01   -0.73300E+02 10122   0.101E+02    0.290E+02
DAV:   2    -0.936556880595E+01   -0.55617E+01   -0.74228E+01  8318   0.398E+01    0.213E+02
DAV:   3    -0.961975316693E+01   -0.25418E+00   -0.55344E+00  8102   0.116E+01    0.769E+01
DAV:   4    -0.943873134817E+01    0.18102E+00   -0.41397E-01  7586   0.393E+00    0.673E+00
DAV:   5    -0.943282701356E+01    0.59043E-02   -0.48615E-02  8658   0.121E+00    0.357E+00
DAV:   6    -0.943118288853E+01    0.16441E-02   -0.59383E-03  7646   0.455E-01    0.127E+00
DAV:   7    -0.943120081920E+01   -0.17931E-04   -0.65109E-04  7778   0.175E-01    0.304E-01
DAV:   8    -0.943117127732E+01    0.29542E-04   -0.11827E-04  7804   0.649E-02    0.116E-01
DAV:   9    -0.943117463445E+01   -0.33571E-05   -0.16277E-05  8084   0.243E-02    0.275E-02
DAV:  10    -0.943117600779E+01   -0.13733E-05   -0.16724E-06  8456   0.832E-03    0.670E-03
DAV:  11    -0.943117670607E+01   -0.69828E-06   -0.15221E-07  8492   0.262E-03    0.580E-03
DAV:  12    -0.943117683229E+01   -0.12622E-06   -0.35035E-08  7556   0.121E-03    0.313E-03
DAV:  13    -0.943117681007E+01    0.22215E-07   -0.38383E-09  3724   0.386E-04    0.608E-04
DAV:  14    -0.943117682136E+01   -0.11287E-07   -0.13464E-09  3658   0.260E-04    0.451E-04
DAV:  15    -0.943117680900E+01    0.12365E-07   -0.24991E-10  3604   0.107E-04    0.127E-04
DAV:  16    -0.943117680515E+01    0.38508E-08   -0.80928E-11  3586   0.666E-05
   1 F= -.94311768E+01 E0= -.94311768E+01  d E =0.000000E+00
 writing wavefunctions
