 vasp.5.4.4.18Apr17-6-g9f103f2a35 (build May 21 2018 15:16:00) complex           
 executed on GUN_wannier90_optcel date 2019.03.24  21:33:00
 running on    2 total cores
 distrk:  each k-point on    2 cores,    1 groups
 distr:  one band on NCORES_PER_BAND=   1 cores,    2 groups


--------------------------------------------------------------------------------------------------------


 INCAR:
 POTCAR:    PAW_PBE Te 08Apr2002                  
 POTCAR:    PAW_PBE Te 08Apr2002                  
  local pseudopotential read in
  partial core-charges read in
  partial kinetic energy density read in
  atomic valenz-charges read in
  non local Contribution for L=           0  read in
    real space projection operators read in
  non local Contribution for L=           0  read in
    real space projection operators read in
  non local Contribution for L=           1  read in
    real space projection operators read in
  non local Contribution for L=           1  read in
    real space projection operators read in
  non local Contribution for L=           2  read in
    real space projection operators read in
    PAW grid and wavefunctions read in

   number of l-projection  operators is LMAX  =           5
   number of lm-projection operators is LMMAX =          13

  PAW_PBE Te 08Apr2002                  :
 energy of atom  1       EATOM= -223.2721
 kinetic energy error for atom=    0.0007 (will be added to EATOM!!)


 POSCAR: Te                                      
  positions in direct lattice
  velocities in cartesian coordinates
 exchange correlation table for  LEXCH =        8
   RHO(1)=    0.500       N(1)  =     2000
   RHO(2)=  100.500       N(2)  =     4000



--------------------------------------------------------------------------------------------------------


 ion  position               nearest neighbor table
   1  0.269  0.000  0.167-   3 2.89   2 2.89   3 3.51   3 3.51   2 3.51   2 3.51
   2  0.000  0.269  0.833-   3 2.89   1 2.89   3 3.51   3 3.51   1 3.51   1 3.51
   3  0.731  0.731  0.500-   1 2.89   2 2.89   1 3.51   2 3.51   1 3.51   2 3.51


IMPORTANT INFORMATION: All symmetrisations will be switched off!
NOSYMM: (Re-)initialisation of all symmetry stuff for point group C_1.



 KPOINTS: K-point                                 

Automatic generation of k-mesh.
Space group operators:
 irot       det(A)        alpha          n_x          n_y          n_z        tau_x        tau_y        tau_z
    1     1.000000     0.000000     1.000000     0.000000     0.000000     0.000000     0.000000     0.000000
 
 Subroutine IBZKPT returns following result:
 ===========================================
 
 Found    245 irreducible k-points:
 
 Following reciprocal coordinates:
            Coordinates               Weight
  0.000000  0.000000  0.000000      1.000000
  0.142857  0.000000  0.000000      1.000000
  0.285714  0.000000  0.000000      1.000000
  0.428571  0.000000  0.000000      1.000000
 -0.428571  0.000000  0.000000      1.000000
 -0.285714  0.000000  0.000000      1.000000
 -0.142857  0.000000  0.000000      1.000000
  0.000000  0.142857  0.000000      1.000000
  0.142857  0.142857  0.000000      1.000000
  0.285714  0.142857  0.000000      1.000000
  0.428571  0.142857  0.000000      1.000000
 -0.428571  0.142857  0.000000      1.000000
 -0.285714  0.142857  0.000000      1.000000
 -0.142857  0.142857  0.000000      1.000000
  0.000000  0.285714  0.000000      1.000000
  0.142857  0.285714  0.000000      1.000000
  0.285714  0.285714  0.000000      1.000000
  0.428571  0.285714  0.000000      1.000000
 -0.428571  0.285714  0.000000      1.000000
 -0.285714  0.285714  0.000000      1.000000
 -0.142857  0.285714  0.000000      1.000000
  0.000000  0.428571  0.000000      1.000000
  0.142857  0.428571  0.000000      1.000000
  0.285714  0.428571  0.000000      1.000000
  0.428571  0.428571  0.000000      1.000000
 -0.428571  0.428571  0.000000      1.000000
 -0.285714  0.428571  0.000000      1.000000
 -0.142857  0.428571  0.000000      1.000000
  0.000000 -0.428571  0.000000      1.000000
  0.142857 -0.428571  0.000000      1.000000
  0.285714 -0.428571  0.000000      1.000000
  0.428571 -0.428571  0.000000      1.000000
 -0.428571 -0.428571  0.000000      1.000000
 -0.285714 -0.428571  0.000000      1.000000
 -0.142857 -0.428571  0.000000      1.000000
  0.000000 -0.285714  0.000000      1.000000
  0.142857 -0.285714  0.000000      1.000000
  0.285714 -0.285714  0.000000      1.000000
  0.428571 -0.285714  0.000000      1.000000
 -0.428571 -0.285714  0.000000      1.000000
 -0.285714 -0.285714  0.000000      1.000000
 -0.142857 -0.285714  0.000000      1.000000
  0.000000 -0.142857  0.000000      1.000000
  0.142857 -0.142857  0.000000      1.000000
  0.285714 -0.142857  0.000000      1.000000
  0.428571 -0.142857  0.000000      1.000000
 -0.428571 -0.142857  0.000000      1.000000
 -0.285714 -0.142857  0.000000      1.000000
 -0.142857 -0.142857  0.000000      1.000000
  0.000000  0.000000  0.200000      1.000000
  0.142857  0.000000  0.200000      1.000000
  0.285714  0.000000  0.200000      1.000000
  0.428571  0.000000  0.200000      1.000000
 -0.428571  0.000000  0.200000      1.000000
 -0.285714  0.000000  0.200000      1.000000
 -0.142857  0.000000  0.200000      1.000000
  0.000000  0.142857  0.200000      1.000000
  0.142857  0.142857  0.200000      1.000000
  0.285714  0.142857  0.200000      1.000000
  0.428571  0.142857  0.200000      1.000000
 -0.428571  0.142857  0.200000      1.000000
 -0.285714  0.142857  0.200000      1.000000
 -0.142857  0.142857  0.200000      1.000000
  0.000000  0.285714  0.200000      1.000000
  0.142857  0.285714  0.200000      1.000000
  0.285714  0.285714  0.200000      1.000000
  0.428571  0.285714  0.200000      1.000000
 -0.428571  0.285714  0.200000      1.000000
 -0.285714  0.285714  0.200000      1.000000
 -0.142857  0.285714  0.200000      1.000000
  0.000000  0.428571  0.200000      1.000000
  0.142857  0.428571  0.200000      1.000000
  0.285714  0.428571  0.200000      1.000000
  0.428571  0.428571  0.200000      1.000000
 -0.428571  0.428571  0.200000      1.000000
 -0.285714  0.428571  0.200000      1.000000
 -0.142857  0.428571  0.200000      1.000000
  0.000000 -0.428571  0.200000      1.000000
  0.142857 -0.428571  0.200000      1.000000
  0.285714 -0.428571  0.200000      1.000000
  0.428571 -0.428571  0.200000      1.000000
 -0.428571 -0.428571  0.200000      1.000000
 -0.285714 -0.428571  0.200000      1.000000
 -0.142857 -0.428571  0.200000      1.000000
  0.000000 -0.285714  0.200000      1.000000
  0.142857 -0.285714  0.200000      1.000000
  0.285714 -0.285714  0.200000      1.000000
  0.428571 -0.285714  0.200000      1.000000
 -0.428571 -0.285714  0.200000      1.000000
 -0.285714 -0.285714  0.200000      1.000000
 -0.142857 -0.285714  0.200000      1.000000
  0.000000 -0.142857  0.200000      1.000000
  0.142857 -0.142857  0.200000      1.000000
  0.285714 -0.142857  0.200000      1.000000
  0.428571 -0.142857  0.200000      1.000000
 -0.428571 -0.142857  0.200000      1.000000
 -0.285714 -0.142857  0.200000      1.000000
 -0.142857 -0.142857  0.200000      1.000000
  0.000000  0.000000  0.400000      1.000000
  0.142857  0.000000  0.400000      1.000000
  0.285714  0.000000  0.400000      1.000000
  0.428571  0.000000  0.400000      1.000000
 -0.428571  0.000000  0.400000      1.000000
 -0.285714  0.000000  0.400000      1.000000
 -0.142857  0.000000  0.400000      1.000000
  0.000000  0.142857  0.400000      1.000000
  0.142857  0.142857  0.400000      1.000000
  0.285714  0.142857  0.400000      1.000000
  0.428571  0.142857  0.400000      1.000000
 -0.428571  0.142857  0.400000      1.000000
 -0.285714  0.142857  0.400000      1.000000
 -0.142857  0.142857  0.400000      1.000000
  0.000000  0.285714  0.400000      1.000000
  0.142857  0.285714  0.400000      1.000000
  0.285714  0.285714  0.400000      1.000000
  0.428571  0.285714  0.400000      1.000000
 -0.428571  0.285714  0.400000      1.000000
 -0.285714  0.285714  0.400000      1.000000
 -0.142857  0.285714  0.400000      1.000000
  0.000000  0.428571  0.400000      1.000000
  0.142857  0.428571  0.400000      1.000000
  0.285714  0.428571  0.400000      1.000000
  0.428571  0.428571  0.400000      1.000000
 -0.428571  0.428571  0.400000      1.000000
 -0.285714  0.428571  0.400000      1.000000
 -0.142857  0.428571  0.400000      1.000000
  0.000000 -0.428571  0.400000      1.000000
  0.142857 -0.428571  0.400000      1.000000
  0.285714 -0.428571  0.400000      1.000000
  0.428571 -0.428571  0.400000      1.000000
 -0.428571 -0.428571  0.400000      1.000000
 -0.285714 -0.428571  0.400000      1.000000
 -0.142857 -0.428571  0.400000      1.000000
  0.000000 -0.285714  0.400000      1.000000
  0.142857 -0.285714  0.400000      1.000000
  0.285714 -0.285714  0.400000      1.000000
  0.428571 -0.285714  0.400000      1.000000
 -0.428571 -0.285714  0.400000      1.000000
 -0.285714 -0.285714  0.400000      1.000000
 -0.142857 -0.285714  0.400000      1.000000
  0.000000 -0.142857  0.400000      1.000000
  0.142857 -0.142857  0.400000      1.000000
  0.285714 -0.142857  0.400000      1.000000
  0.428571 -0.142857  0.400000      1.000000
 -0.428571 -0.142857  0.400000      1.000000
 -0.285714 -0.142857  0.400000      1.000000
 -0.142857 -0.142857  0.400000      1.000000
  0.000000  0.000000 -0.400000      1.000000
  0.142857  0.000000 -0.400000      1.000000
  0.285714  0.000000 -0.400000      1.000000
  0.428571  0.000000 -0.400000      1.000000
 -0.428571  0.000000 -0.400000      1.000000
 -0.285714  0.000000 -0.400000      1.000000
 -0.142857  0.000000 -0.400000      1.000000
  0.000000  0.142857 -0.400000      1.000000
  0.142857  0.142857 -0.400000      1.000000
  0.285714  0.142857 -0.400000      1.000000
  0.428571  0.142857 -0.400000      1.000000
 -0.428571  0.142857 -0.400000      1.000000
 -0.285714  0.142857 -0.400000      1.000000
 -0.142857  0.142857 -0.400000      1.000000
  0.000000  0.285714 -0.400000      1.000000
  0.142857  0.285714 -0.400000      1.000000
  0.285714  0.285714 -0.400000      1.000000
  0.428571  0.285714 -0.400000      1.000000
 -0.428571  0.285714 -0.400000      1.000000
 -0.285714  0.285714 -0.400000      1.000000
 -0.142857  0.285714 -0.400000      1.000000
  0.000000  0.428571 -0.400000      1.000000
  0.142857  0.428571 -0.400000      1.000000
  0.285714  0.428571 -0.400000      1.000000
  0.428571  0.428571 -0.400000      1.000000
 -0.428571  0.428571 -0.400000      1.000000
 -0.285714  0.428571 -0.400000      1.000000
 -0.142857  0.428571 -0.400000      1.000000
  0.000000 -0.428571 -0.400000      1.000000
  0.142857 -0.428571 -0.400000      1.000000
  0.285714 -0.428571 -0.400000      1.000000
  0.428571 -0.428571 -0.400000      1.000000
 -0.428571 -0.428571 -0.400000      1.000000
 -0.285714 -0.428571 -0.400000      1.000000
 -0.142857 -0.428571 -0.400000      1.000000
  0.000000 -0.285714 -0.400000      1.000000
  0.142857 -0.285714 -0.400000      1.000000
  0.285714 -0.285714 -0.400000      1.000000
  0.428571 -0.285714 -0.400000      1.000000
 -0.428571 -0.285714 -0.400000      1.000000
 -0.285714 -0.285714 -0.400000      1.000000
 -0.142857 -0.285714 -0.400000      1.000000
  0.000000 -0.142857 -0.400000      1.000000
  0.142857 -0.142857 -0.400000      1.000000
  0.285714 -0.142857 -0.400000      1.000000
  0.428571 -0.142857 -0.400000      1.000000
 -0.428571 -0.142857 -0.400000      1.000000
 -0.285714 -0.142857 -0.400000      1.000000
 -0.142857 -0.142857 -0.400000      1.000000
  0.000000  0.000000 -0.200000      1.000000
  0.142857  0.000000 -0.200000      1.000000
  0.285714  0.000000 -0.200000      1.000000
  0.428571  0.000000 -0.200000      1.000000
 -0.428571  0.000000 -0.200000      1.000000
 -0.285714  0.000000 -0.200000      1.000000
 -0.142857  0.000000 -0.200000      1.000000
  0.000000  0.142857 -0.200000      1.000000
  0.142857  0.142857 -0.200000      1.000000
  0.285714  0.142857 -0.200000      1.000000
  0.428571  0.142857 -0.200000      1.000000
 -0.428571  0.142857 -0.200000      1.000000
 -0.285714  0.142857 -0.200000      1.000000
 -0.142857  0.142857 -0.200000      1.000000
  0.000000  0.285714 -0.200000      1.000000
  0.142857  0.285714 -0.200000      1.000000
  0.285714  0.285714 -0.200000      1.000000
  0.428571  0.285714 -0.200000      1.000000
 -0.428571  0.285714 -0.200000      1.000000
 -0.285714  0.285714 -0.200000      1.000000
 -0.142857  0.285714 -0.200000      1.000000
  0.000000  0.428571 -0.200000      1.000000
  0.142857  0.428571 -0.200000      1.000000
  0.285714  0.428571 -0.200000      1.000000
  0.428571  0.428571 -0.200000      1.000000
 -0.428571  0.428571 -0.200000      1.000000
 -0.285714  0.428571 -0.200000      1.000000
 -0.142857  0.428571 -0.200000      1.000000
  0.000000 -0.428571 -0.200000      1.000000
  0.142857 -0.428571 -0.200000      1.000000
  0.285714 -0.428571 -0.200000      1.000000
  0.428571 -0.428571 -0.200000      1.000000
 -0.428571 -0.428571 -0.200000      1.000000
 -0.285714 -0.428571 -0.200000      1.000000
 -0.142857 -0.428571 -0.200000      1.000000
  0.000000 -0.285714 -0.200000      1.000000
  0.142857 -0.285714 -0.200000      1.000000
  0.285714 -0.285714 -0.200000      1.000000
  0.428571 -0.285714 -0.200000      1.000000
 -0.428571 -0.285714 -0.200000      1.000000
 -0.285714 -0.285714 -0.200000      1.000000
 -0.142857 -0.285714 -0.200000      1.000000
  0.000000 -0.142857 -0.200000      1.000000
  0.142857 -0.142857 -0.200000      1.000000
  0.285714 -0.142857 -0.200000      1.000000
  0.428571 -0.142857 -0.200000      1.000000
 -0.428571 -0.142857 -0.200000      1.000000
 -0.285714 -0.142857 -0.200000      1.000000
 -0.142857 -0.142857 -0.200000      1.000000
 
 Following cartesian coordinates:
            Coordinates               Weight
  0.000000  0.000000  0.000000      1.000000
  0.031615 -0.018253  0.000000      1.000000
  0.063230 -0.036506  0.000000      1.000000
  0.094845 -0.054759  0.000000      1.000000
 -0.094845  0.054759  0.000000      1.000000
 -0.063230  0.036506  0.000000      1.000000
 -0.031615  0.018253  0.000000      1.000000
  0.031615  0.018253  0.000000      1.000000
  0.063230  0.000000  0.000000      1.000000
  0.094845 -0.018253  0.000000      1.000000
  0.126460 -0.036506  0.000000      1.000000
 -0.063230  0.073012  0.000000      1.000000
 -0.031615  0.054759  0.000000      1.000000
  0.000000  0.036506  0.000000      1.000000
  0.063230  0.036506  0.000000      1.000000
  0.094845  0.018253  0.000000      1.000000
  0.126460  0.000000  0.000000      1.000000
  0.158075 -0.018253  0.000000      1.000000
 -0.031615  0.091265  0.000000      1.000000
  0.000000  0.073012  0.000000      1.000000
  0.031615  0.054759  0.000000      1.000000
  0.094845  0.054759  0.000000      1.000000
  0.126460  0.036506  0.000000      1.000000
  0.158075  0.018253  0.000000      1.000000
  0.189690  0.000000  0.000000      1.000000
  0.000000  0.109518  0.000000      1.000000
  0.031615  0.091265  0.000000      1.000000
  0.063230  0.073012  0.000000      1.000000
 -0.094845 -0.054759  0.000000      1.000000
 -0.063230 -0.073012  0.000000      1.000000
 -0.031615 -0.091265  0.000000      1.000000
  0.000000 -0.109518  0.000000      1.000000
 -0.189690  0.000000  0.000000      1.000000
 -0.158075 -0.018253  0.000000      1.000000
 -0.126460 -0.036506  0.000000      1.000000
 -0.063230 -0.036506  0.000000      1.000000
 -0.031615 -0.054759  0.000000      1.000000
  0.000000 -0.073012  0.000000      1.000000
  0.031615 -0.091265  0.000000      1.000000
 -0.158075  0.018253  0.000000      1.000000
 -0.126460  0.000000  0.000000      1.000000
 -0.094845 -0.018253  0.000000      1.000000
 -0.031615 -0.018253  0.000000      1.000000
  0.000000 -0.036506  0.000000      1.000000
  0.031615 -0.054759  0.000000      1.000000
  0.063230 -0.073012  0.000000      1.000000
 -0.126460  0.036506  0.000000      1.000000
 -0.094845  0.018253  0.000000      1.000000
 -0.063230  0.000000  0.000000      1.000000
  0.000000  0.000000  0.033595      1.000000
  0.031615 -0.018253  0.033595      1.000000
  0.063230 -0.036506  0.033595      1.000000
  0.094845 -0.054759  0.033595      1.000000
 -0.094845  0.054759  0.033595      1.000000
 -0.063230  0.036506  0.033595      1.000000
 -0.031615  0.018253  0.033595      1.000000
  0.031615  0.018253  0.033595      1.000000
  0.063230  0.000000  0.033595      1.000000
  0.094845 -0.018253  0.033595      1.000000
  0.126460 -0.036506  0.033595      1.000000
 -0.063230  0.073012  0.033595      1.000000
 -0.031615  0.054759  0.033595      1.000000
  0.000000  0.036506  0.033595      1.000000
  0.063230  0.036506  0.033595      1.000000
  0.094845  0.018253  0.033595      1.000000
  0.126460  0.000000  0.033595      1.000000
  0.158075 -0.018253  0.033595      1.000000
 -0.031615  0.091265  0.033595      1.000000
  0.000000  0.073012  0.033595      1.000000
  0.031615  0.054759  0.033595      1.000000
  0.094845  0.054759  0.033595      1.000000
  0.126460  0.036506  0.033595      1.000000
  0.158075  0.018253  0.033595      1.000000
  0.189690  0.000000  0.033595      1.000000
  0.000000  0.109518  0.033595      1.000000
  0.031615  0.091265  0.033595      1.000000
  0.063230  0.073012  0.033595      1.000000
 -0.094845 -0.054759  0.033595      1.000000
 -0.063230 -0.073012  0.033595      1.000000
 -0.031615 -0.091265  0.033595      1.000000
  0.000000 -0.109518  0.033595      1.000000
 -0.189690  0.000000  0.033595      1.000000
 -0.158075 -0.018253  0.033595      1.000000
 -0.126460 -0.036506  0.033595      1.000000
 -0.063230 -0.036506  0.033595      1.000000
 -0.031615 -0.054759  0.033595      1.000000
  0.000000 -0.073012  0.033595      1.000000
  0.031615 -0.091265  0.033595      1.000000
 -0.158075  0.018253  0.033595      1.000000
 -0.126460  0.000000  0.033595      1.000000
 -0.094845 -0.018253  0.033595      1.000000
 -0.031615 -0.018253  0.033595      1.000000
  0.000000 -0.036506  0.033595      1.000000
  0.031615 -0.054759  0.033595      1.000000
  0.063230 -0.073012  0.033595      1.000000
 -0.126460  0.036506  0.033595      1.000000
 -0.094845  0.018253  0.033595      1.000000
 -0.063230  0.000000  0.033595      1.000000
  0.000000  0.000000  0.067191      1.000000
  0.031615 -0.018253  0.067191      1.000000
  0.063230 -0.036506  0.067191      1.000000
  0.094845 -0.054759  0.067191      1.000000
 -0.094845  0.054759  0.067191      1.000000
 -0.063230  0.036506  0.067191      1.000000
 -0.031615  0.018253  0.067191      1.000000
  0.031615  0.018253  0.067191      1.000000
  0.063230  0.000000  0.067191      1.000000
  0.094845 -0.018253  0.067191      1.000000
  0.126460 -0.036506  0.067191      1.000000
 -0.063230  0.073012  0.067191      1.000000
 -0.031615  0.054759  0.067191      1.000000
  0.000000  0.036506  0.067191      1.000000
  0.063230  0.036506  0.067191      1.000000
  0.094845  0.018253  0.067191      1.000000
  0.126460  0.000000  0.067191      1.000000
  0.158075 -0.018253  0.067191      1.000000
 -0.031615  0.091265  0.067191      1.000000
  0.000000  0.073012  0.067191      1.000000
  0.031615  0.054759  0.067191      1.000000
  0.094845  0.054759  0.067191      1.000000
  0.126460  0.036506  0.067191      1.000000
  0.158075  0.018253  0.067191      1.000000
  0.189690  0.000000  0.067191      1.000000
  0.000000  0.109518  0.067191      1.000000
  0.031615  0.091265  0.067191      1.000000
  0.063230  0.073012  0.067191      1.000000
 -0.094845 -0.054759  0.067191      1.000000
 -0.063230 -0.073012  0.067191      1.000000
 -0.031615 -0.091265  0.067191      1.000000
  0.000000 -0.109518  0.067191      1.000000
 -0.189690  0.000000  0.067191      1.000000
 -0.158075 -0.018253  0.067191      1.000000
 -0.126460 -0.036506  0.067191      1.000000
 -0.063230 -0.036506  0.067191      1.000000
 -0.031615 -0.054759  0.067191      1.000000
  0.000000 -0.073012  0.067191      1.000000
  0.031615 -0.091265  0.067191      1.000000
 -0.158075  0.018253  0.067191      1.000000
 -0.126460  0.000000  0.067191      1.000000
 -0.094845 -0.018253  0.067191      1.000000
 -0.031615 -0.018253  0.067191      1.000000
  0.000000 -0.036506  0.067191      1.000000
  0.031615 -0.054759  0.067191      1.000000
  0.063230 -0.073012  0.067191      1.000000
 -0.126460  0.036506  0.067191      1.000000
 -0.094845  0.018253  0.067191      1.000000
 -0.063230  0.000000  0.067191      1.000000
  0.000000  0.000000 -0.067191      1.000000
  0.031615 -0.018253 -0.067191      1.000000
  0.063230 -0.036506 -0.067191      1.000000
  0.094845 -0.054759 -0.067191      1.000000
 -0.094845  0.054759 -0.067191      1.000000
 -0.063230  0.036506 -0.067191      1.000000
 -0.031615  0.018253 -0.067191      1.000000
  0.031615  0.018253 -0.067191      1.000000
  0.063230  0.000000 -0.067191      1.000000
  0.094845 -0.018253 -0.067191      1.000000
  0.126460 -0.036506 -0.067191      1.000000
 -0.063230  0.073012 -0.067191      1.000000
 -0.031615  0.054759 -0.067191      1.000000
  0.000000  0.036506 -0.067191      1.000000
  0.063230  0.036506 -0.067191      1.000000
  0.094845  0.018253 -0.067191      1.000000
  0.126460  0.000000 -0.067191      1.000000
  0.158075 -0.018253 -0.067191      1.000000
 -0.031615  0.091265 -0.067191      1.000000
  0.000000  0.073012 -0.067191      1.000000
  0.031615  0.054759 -0.067191      1.000000
  0.094845  0.054759 -0.067191      1.000000
  0.126460  0.036506 -0.067191      1.000000
  0.158075  0.018253 -0.067191      1.000000
  0.189690  0.000000 -0.067191      1.000000
  0.000000  0.109518 -0.067191      1.000000
  0.031615  0.091265 -0.067191      1.000000
  0.063230  0.073012 -0.067191      1.000000
 -0.094845 -0.054759 -0.067191      1.000000
 -0.063230 -0.073012 -0.067191      1.000000
 -0.031615 -0.091265 -0.067191      1.000000
  0.000000 -0.109518 -0.067191      1.000000
 -0.189690  0.000000 -0.067191      1.000000
 -0.158075 -0.018253 -0.067191      1.000000
 -0.126460 -0.036506 -0.067191      1.000000
 -0.063230 -0.036506 -0.067191      1.000000
 -0.031615 -0.054759 -0.067191      1.000000
  0.000000 -0.073012 -0.067191      1.000000
  0.031615 -0.091265 -0.067191      1.000000
 -0.158075  0.018253 -0.067191      1.000000
 -0.126460  0.000000 -0.067191      1.000000
 -0.094845 -0.018253 -0.067191      1.000000
 -0.031615 -0.018253 -0.067191      1.000000
  0.000000 -0.036506 -0.067191      1.000000
  0.031615 -0.054759 -0.067191      1.000000
  0.063230 -0.073012 -0.067191      1.000000
 -0.126460  0.036506 -0.067191      1.000000
 -0.094845  0.018253 -0.067191      1.000000
 -0.063230  0.000000 -0.067191      1.000000
  0.000000  0.000000 -0.033595      1.000000
  0.031615 -0.018253 -0.033595      1.000000
  0.063230 -0.036506 -0.033595      1.000000
  0.094845 -0.054759 -0.033595      1.000000
 -0.094845  0.054759 -0.033595      1.000000
 -0.063230  0.036506 -0.033595      1.000000
 -0.031615  0.018253 -0.033595      1.000000
  0.031615  0.018253 -0.033595      1.000000
  0.063230  0.000000 -0.033595      1.000000
  0.094845 -0.018253 -0.033595      1.000000
  0.126460 -0.036506 -0.033595      1.000000
 -0.063230  0.073012 -0.033595      1.000000
 -0.031615  0.054759 -0.033595      1.000000
  0.000000  0.036506 -0.033595      1.000000
  0.063230  0.036506 -0.033595      1.000000
  0.094845  0.018253 -0.033595      1.000000
  0.126460  0.000000 -0.033595      1.000000
  0.158075 -0.018253 -0.033595      1.000000
 -0.031615  0.091265 -0.033595      1.000000
  0.000000  0.073012 -0.033595      1.000000
  0.031615  0.054759 -0.033595      1.000000
  0.094845  0.054759 -0.033595      1.000000
  0.126460  0.036506 -0.033595      1.000000
  0.158075  0.018253 -0.033595      1.000000
  0.189690  0.000000 -0.033595      1.000000
  0.000000  0.109518 -0.033595      1.000000
  0.031615  0.091265 -0.033595      1.000000
  0.063230  0.073012 -0.033595      1.000000
 -0.094845 -0.054759 -0.033595      1.000000
 -0.063230 -0.073012 -0.033595      1.000000
 -0.031615 -0.091265 -0.033595      1.000000
  0.000000 -0.109518 -0.033595      1.000000
 -0.189690  0.000000 -0.033595      1.000000
 -0.158075 -0.018253 -0.033595      1.000000
 -0.126460 -0.036506 -0.033595      1.000000
 -0.063230 -0.036506 -0.033595      1.000000
 -0.031615 -0.054759 -0.033595      1.000000
  0.000000 -0.073012 -0.033595      1.000000
  0.031615 -0.091265 -0.033595      1.000000
 -0.158075  0.018253 -0.033595      1.000000
 -0.126460  0.000000 -0.033595      1.000000
 -0.094845 -0.018253 -0.033595      1.000000
 -0.031615 -0.018253 -0.033595      1.000000
  0.000000 -0.036506 -0.033595      1.000000
  0.031615 -0.054759 -0.033595      1.000000
  0.063230 -0.073012 -0.033595      1.000000
 -0.126460  0.036506 -0.033595      1.000000
 -0.094845  0.018253 -0.033595      1.000000
 -0.063230  0.000000 -0.033595      1.000000
 
 TETIRR: Found   1470 inequivalent tetrahedra from     1470


--------------------------------------------------------------------------------------------------------




 Dimension of arrays:
   k-points           NKPTS =    245   k-points in BZ     NKDIM =    245   number of bands    NBANDS=     14
   number of dos      NEDOS =   3000   number of ions     NIONS =      3
   non local maximal  LDIM  =      5   non local SUM 2l+1 LMDIM =     13
   total plane-waves  NPLWV =  62208
   max r-space proj   IRMAX =      1   max aug-charges    IRDMAX=  34567
   dimension x,y,z NGX =    36 NGY =   36 NGZ =   48
   dimension x,y,z NGXF=    72 NGYF=   72 NGZF=   96
   support grid    NGXF=    72 NGYF=   72 NGZF=   96
   ions per type =               3
   NGX,Y,Z   is equivalent  to a cutoff of  13.24, 13.24, 13.40 a.u.
   NGXF,Y,Z  is equivalent  to a cutoff of  26.49, 26.49, 26.81 a.u.

 SYSTEM =  Te-a                                    
 POSCAR =  Te                                      

 Startparameter for this run:
   NWRITE =      1    write-flag & timer
   PREC   = a         normal or accurate (medium, high low for compatibility)
   ISTART =      1    job   : 0-new  1-cont  2-samecut
   ICHARG =      0    charge: 1-file 2-atom 10-const
   ISPIN  =      1    spin polarized calculation?
   LNONCOLLINEAR =      F non collinear calculations
   LSORBIT =      F    spin-orbit coupling
   INIWAV =      1    electr: 0-lowe 1-rand  2-diag
   LASPH  =      T    aspherical Exc in radial PAW
   METAGGA=      F    non-selfconsistent MetaGGA calc.

 Electronic Relaxation 1
   ENCUT  =  500.0 eV  36.75 Ry    6.06 a.u.   8.24  8.24 10.85*2*pi/ulx,y,z
   ENINI  =  500.0     initial cutoff
   ENAUG  =  368.8 eV  augmentation charge cutoff
   NELM   =   2000;   NELMIN=  5; NELMDL=  0     # of ELM steps 
   EDIFF  = 0.1E-07   stopping-criterion for ELM
   LREAL  =      F    real-space projection
   NLSPLINE    = F    spline interpolate recip. space projectors
   LCOMPAT=      F    compatible to vasp.4.4
   GGA_COMPAT  = F    GGA compatible to vasp.4.4-vasp.4.6
   LMAXPAW     = -100 max onsite density
   LMAXMIX     =    2 max onsite mixed and CHGCAR
   VOSKOWN=      0    Vosko Wilk Nusair interpolation
   ROPT   =    0.00000
 Ionic relaxation
   EDIFFG = -.1E-02   stopping-criterion for IOM
   NSW    =      0    number of steps for IOM
   NBLOCK =      1;   KBLOCK =      1    inner block; outer block 
   IBRION =     -1    ionic relax: 0-MD 1-quasi-New 2-CG
   NFREE  =      0    steps in history (QN), initial steepest desc. (CG)
   ISIF   =      2    stress and relaxation
   IWAVPR =     10    prediction:  0-non 1-charg 2-wave 3-comb
   ISYM   =     -1    0-nonsym 1-usesym 2-fastsym
   LCORR  =      T    Harris-Foulkes like correction to forces

   POTIM  = 0.5000    time-step for ionic-motion
   TEIN   =    0.0    initial temperature
   TEBEG  =    0.0;   TEEND  =   0.0 temperature during run
   SMASS  =  -3.00    Nose mass-parameter (am)
   estimated Nose-frequenzy (Omega)   =  0.10E-29 period in steps =****** mass=  -0.467E-27a.u.
   SCALEE = 1.0000    scale energy and forces
   NPACO  =    256;   APACO  = 16.0  distance and # of slots for P.C.
   PSTRESS=    0.0 pullay stress

  Mass of Ions in am
   POMASS = 127.60
  Ionic Valenz
   ZVAL   =   6.00
  Atomic Wigner-Seitz radii
   RWIGS  =  -1.00
  virtual crystal weights 
   VCA    =   1.00
   NELECT =      18.0000    total number of electrons
   NUPDOWN=      -1.0000    fix difference up-down

 DOS related values:
   EMIN   = -15.00;   EMAX   = 15.00  energy-range for DOS
   EFERMI =   0.00
   ISMEAR =    -5;   SIGMA  =   0.20  broadening in eV -4-tet -1-fermi 0-gaus

 Electronic relaxation 2 (details)
   IALGO  =     38    algorithm
   LDIAG  =      T    sub-space diagonalisation (order eigenvalues)
   LSUBROT=      F    optimize rotation matrix (better conditioning)
   TURBO    =      0    0=normal 1=particle mesh
   IRESTART =      0    0=no restart 2=restart with 2 vectors
   NREBOOT  =      0    no. of reboots
   NMIN     =      0    reboot dimension
   EREF     =   0.00    reference energy to select bands
   IMIX   =      4    mixing-type and parameters
     AMIX     =   0.40;   BMIX     =  1.00
     AMIX_MAG =   1.60;   BMIX_MAG =  1.00
     AMIN     =   0.10
     WC   =   100.;   INIMIX=   1;  MIXPRE=   1;  MAXMIX= -45

 Intra band minimization:
   WEIMIN = 0.0000     energy-eigenvalue tresh-hold
   EBREAK =  0.18E-09  absolut break condition
   DEPER  =   0.30     relativ break condition  

   TIME   =   0.40     timestep for ELM

  volume/ion in A,a.u.               =      35.09       236.79
  Fermi-wavevector in a.u.,A,eV,Ry     =   0.908657  1.717114 11.233763  0.825658
  Thomas-Fermi vector in A             =   2.032610

 Write flags
   LWAVE        =      T    write WAVECAR
   LDOWNSAMPLE  =      F    k-point downsampling of WAVECAR
   LCHARG       =      T    write CHGCAR
   LVTOT        =      F    write LOCPOT, total local potential
   LVHAR        =      F    write LOCPOT, Hartree potential only
   LELF         =      F    write electronic localiz. function (ELF)
   LORBIT       =     11    0 simple, 1 ext, 2 COOP (PROOUT), +10 PAW based schemes


 Dipole corrections
   LMONO  =      F    monopole corrections only (constant potential shift)
   LDIPOL =      F    correct potential (dipole corrections)
   IDIPOL =      0    1-x, 2-y, 3-z, 4-all directions 
   EPSILON=  1.0000000 bulk dielectric constant

 Exchange correlation treatment:
   GGA     =    --    GGA type
   LEXCH   =     8    internal setting for exchange type
   VOSKOWN=      0    Vosko Wilk Nusair interpolation
   LHFCALC =     F    Hartree Fock is set to
   LHFONE  =     F    Hartree Fock one center treatment
   AEXX    =    0.0000 exact exchange contribution

 Linear response parameters
   LEPSILON=     F    determine dielectric tensor
   LRPA    =     F    only Hartree local field effects (RPA)
   LNABLA  =     F    use nabla operator in PAW spheres
   LVEL    =     F    velocity operator in full k-point grid
   LINTERFAST=   F  fast interpolation
   KINTER  =     0    interpolate to denser k-point grid
   CSHIFT  =0.1000    complex shift for real part using Kramers Kronig
   OMEGAMAX=  -1.0    maximum frequency
   DEG_THRESHOLD= 0.2000000E-02 threshold for treating states as degnerate
   RTIME   =   -0.100 relaxation time in fs
  (WPLASMAI=    0.000 imaginary part of plasma frequency in eV, 0.658/RTIME)
   DFIELD  = 0.0000000 0.0000000 0.0000000 field for delta impulse in time

 Orbital magnetization related:
   ORBITALMAG=     F  switch on orbital magnetization
   LCHIMAG   =     F  perturbation theory with respect to B field
   DQ        =  0.001000  dq finite difference perturbation B field
   LLRAUG    =     F  two centre corrections for induced B field



--------------------------------------------------------------------------------------------------------


 Static calculation
 charge density and potential will be updated during run
 non-spin polarized calculation
 Variant of blocked Davidson
 Davidson routine will perform the subspace rotation
 perform sub-space diagonalisation
    after iterative eigenvector-optimisation
 modified Broyden-mixing scheme, WC =      100.0
 initial mixing is a Kerker type mixing with AMIX =  0.4000 and BMIX =      1.0000
 Hartree-type preconditioning will be used
 using additional bands            5
 reciprocal scheme for non local part
 use partial core corrections
 calculate Harris-corrections to forces   (improved forces if not selfconsistent)
 use gradient corrections 
 use of overlap-Matrix (Vanderbilt PP)
 Fermi weights with tetrahedron method with Bloechl corrections


--------------------------------------------------------------------------------------------------------


  energy-cutoff  :      500.00
  volume of cell :      105.27
      direct lattice vectors                 reciprocal lattice vectors
     2.259320305 -3.913257559 -0.000000000     0.221305496 -0.127770788  0.000000000
     2.259320305  3.913257559  0.000000000     0.221305496  0.127770788  0.000000000
    -0.000000000  0.000000000  5.953196681     0.000000000 -0.000000000  0.167976980

  length of vectors
     4.518640610  4.518640610  5.953196681     0.255541575  0.255541575  0.167976980



 old parameters found on file WAVECAR:
  energy-cutoff  :      500.00
  volume of cell :      105.27
      direct lattice vectors                 reciprocal lattice vectors
     2.259320305 -3.913257559 -0.000000000     0.221305496 -0.127770788  0.000000000
     2.259320305  3.913257559  0.000000000     0.221305496  0.127770788  0.000000000
    -0.000000000  0.000000000  5.953196681     0.000000000 -0.000000000  0.167976980

  length of vectors


 k-points in units of 2pi/SCALE and weight: K-point                                 
   0.00000000  0.00000000  0.00000000       0.004
   0.03161507 -0.01825297  0.00000000       0.004
   0.06323014 -0.03650594  0.00000000       0.004
   0.09484521 -0.05475891  0.00000000       0.004
  -0.09484521  0.05475891  0.00000000       0.004
  -0.06323014  0.03650594  0.00000000       0.004
  -0.03161507  0.01825297  0.00000000       0.004
   0.03161507  0.01825297  0.00000000       0.004
   0.06323014  0.00000000  0.00000000       0.004
   0.09484521 -0.01825297  0.00000000       0.004
   0.12646028 -0.03650594  0.00000000       0.004
  -0.06323014  0.07301188  0.00000000       0.004
  -0.03161507  0.05475891  0.00000000       0.004
   0.00000000  0.03650594  0.00000000       0.004
   0.06323014  0.03650594  0.00000000       0.004
   0.09484521  0.01825297  0.00000000       0.004
   0.12646028  0.00000000  0.00000000       0.004
   0.15807535 -0.01825297  0.00000000       0.004
  -0.03161507  0.09126485  0.00000000       0.004
   0.00000000  0.07301188  0.00000000       0.004
   0.03161507  0.05475891  0.00000000       0.004
   0.09484521  0.05475891  0.00000000       0.004
   0.12646028  0.03650594  0.00000000       0.004
   0.15807535  0.01825297  0.00000000       0.004
   0.18969042  0.00000000  0.00000000       0.004
   0.00000000  0.10951782  0.00000000       0.004
   0.03161507  0.09126485  0.00000000       0.004
   0.06323014  0.07301188  0.00000000       0.004
  -0.09484521 -0.05475891  0.00000000       0.004
  -0.06323014 -0.07301188  0.00000000       0.004
  -0.03161507 -0.09126485  0.00000000       0.004
   0.00000000 -0.10951782  0.00000000       0.004
  -0.18969042  0.00000000  0.00000000       0.004
  -0.15807535 -0.01825297  0.00000000       0.004
  -0.12646028 -0.03650594  0.00000000       0.004
  -0.06323014 -0.03650594  0.00000000       0.004
  -0.03161507 -0.05475891  0.00000000       0.004
   0.00000000 -0.07301188  0.00000000       0.004
   0.03161507 -0.09126485  0.00000000       0.004
  -0.15807535  0.01825297  0.00000000       0.004
  -0.12646028  0.00000000  0.00000000       0.004
  -0.09484521 -0.01825297  0.00000000       0.004
  -0.03161507 -0.01825297  0.00000000       0.004
   0.00000000 -0.03650594  0.00000000       0.004
   0.03161507 -0.05475891  0.00000000       0.004
   0.06323014 -0.07301188  0.00000000       0.004
  -0.12646028  0.03650594  0.00000000       0.004
  -0.09484521  0.01825297  0.00000000       0.004
  -0.06323014  0.00000000  0.00000000       0.004
   0.00000000  0.00000000  0.03359540       0.004
   0.03161507 -0.01825297  0.03359540       0.004
   0.06323014 -0.03650594  0.03359540       0.004
   0.09484521 -0.05475891  0.03359540       0.004
  -0.09484521  0.05475891  0.03359540       0.004
  -0.06323014  0.03650594  0.03359540       0.004
  -0.03161507  0.01825297  0.03359540       0.004
   0.03161507  0.01825297  0.03359540       0.004
   0.06323014  0.00000000  0.03359540       0.004
   0.09484521 -0.01825297  0.03359540       0.004
   0.12646028 -0.03650594  0.03359540       0.004
  -0.06323014  0.07301188  0.03359540       0.004
  -0.03161507  0.05475891  0.03359540       0.004
   0.00000000  0.03650594  0.03359540       0.004
   0.06323014  0.03650594  0.03359540       0.004
   0.09484521  0.01825297  0.03359540       0.004
   0.12646028  0.00000000  0.03359540       0.004
   0.15807535 -0.01825297  0.03359540       0.004
  -0.03161507  0.09126485  0.03359540       0.004
   0.00000000  0.07301188  0.03359540       0.004
   0.03161507  0.05475891  0.03359540       0.004
   0.09484521  0.05475891  0.03359540       0.004
   0.12646028  0.03650594  0.03359540       0.004
   0.15807535  0.01825297  0.03359540       0.004
   0.18969042  0.00000000  0.03359540       0.004
   0.00000000  0.10951782  0.03359540       0.004
   0.03161507  0.09126485  0.03359540       0.004
   0.06323014  0.07301188  0.03359540       0.004
  -0.09484521 -0.05475891  0.03359540       0.004
  -0.06323014 -0.07301188  0.03359540       0.004
  -0.03161507 -0.09126485  0.03359540       0.004
   0.00000000 -0.10951782  0.03359540       0.004
  -0.18969042  0.00000000  0.03359540       0.004
  -0.15807535 -0.01825297  0.03359540       0.004
  -0.12646028 -0.03650594  0.03359540       0.004
  -0.06323014 -0.03650594  0.03359540       0.004
  -0.03161507 -0.05475891  0.03359540       0.004
   0.00000000 -0.07301188  0.03359540       0.004
   0.03161507 -0.09126485  0.03359540       0.004
  -0.15807535  0.01825297  0.03359540       0.004
  -0.12646028  0.00000000  0.03359540       0.004
  -0.09484521 -0.01825297  0.03359540       0.004
  -0.03161507 -0.01825297  0.03359540       0.004
   0.00000000 -0.03650594  0.03359540       0.004
   0.03161507 -0.05475891  0.03359540       0.004
   0.06323014 -0.07301188  0.03359540       0.004
  -0.12646028  0.03650594  0.03359540       0.004
  -0.09484521  0.01825297  0.03359540       0.004
  -0.06323014  0.00000000  0.03359540       0.004
   0.00000000  0.00000000  0.06719079       0.004
   0.03161507 -0.01825297  0.06719079       0.004
   0.06323014 -0.03650594  0.06719079       0.004
   0.09484521 -0.05475891  0.06719079       0.004
  -0.09484521  0.05475891  0.06719079       0.004
  -0.06323014  0.03650594  0.06719079       0.004
  -0.03161507  0.01825297  0.06719079       0.004
   0.03161507  0.01825297  0.06719079       0.004
   0.06323014  0.00000000  0.06719079       0.004
   0.09484521 -0.01825297  0.06719079       0.004
   0.12646028 -0.03650594  0.06719079       0.004
  -0.06323014  0.07301188  0.06719079       0.004
  -0.03161507  0.05475891  0.06719079       0.004
   0.00000000  0.03650594  0.06719079       0.004
   0.06323014  0.03650594  0.06719079       0.004
   0.09484521  0.01825297  0.06719079       0.004
   0.12646028  0.00000000  0.06719079       0.004
   0.15807535 -0.01825297  0.06719079       0.004
  -0.03161507  0.09126485  0.06719079       0.004
   0.00000000  0.07301188  0.06719079       0.004
   0.03161507  0.05475891  0.06719079       0.004
   0.09484521  0.05475891  0.06719079       0.004
   0.12646028  0.03650594  0.06719079       0.004
   0.15807535  0.01825297  0.06719079       0.004
   0.18969042  0.00000000  0.06719079       0.004
   0.00000000  0.10951782  0.06719079       0.004
   0.03161507  0.09126485  0.06719079       0.004
   0.06323014  0.07301188  0.06719079       0.004
  -0.09484521 -0.05475891  0.06719079       0.004
  -0.06323014 -0.07301188  0.06719079       0.004
  -0.03161507 -0.09126485  0.06719079       0.004
   0.00000000 -0.10951782  0.06719079       0.004
  -0.18969042  0.00000000  0.06719079       0.004
  -0.15807535 -0.01825297  0.06719079       0.004
  -0.12646028 -0.03650594  0.06719079       0.004
  -0.06323014 -0.03650594  0.06719079       0.004
  -0.03161507 -0.05475891  0.06719079       0.004
   0.00000000 -0.07301188  0.06719079       0.004
   0.03161507 -0.09126485  0.06719079       0.004
  -0.15807535  0.01825297  0.06719079       0.004
  -0.12646028  0.00000000  0.06719079       0.004
  -0.09484521 -0.01825297  0.06719079       0.004
  -0.03161507 -0.01825297  0.06719079       0.004
   0.00000000 -0.03650594  0.06719079       0.004
   0.03161507 -0.05475891  0.06719079       0.004
   0.06323014 -0.07301188  0.06719079       0.004
  -0.12646028  0.03650594  0.06719079       0.004
  -0.09484521  0.01825297  0.06719079       0.004
  -0.06323014  0.00000000  0.06719079       0.004
   0.00000000  0.00000000 -0.06719079       0.004
   0.03161507 -0.01825297 -0.06719079       0.004
   0.06323014 -0.03650594 -0.06719079       0.004
   0.09484521 -0.05475891 -0.06719079       0.004
  -0.09484521  0.05475891 -0.06719079       0.004
  -0.06323014  0.03650594 -0.06719079       0.004
  -0.03161507  0.01825297 -0.06719079       0.004
   0.03161507  0.01825297 -0.06719079       0.004
   0.06323014  0.00000000 -0.06719079       0.004
   0.09484521 -0.01825297 -0.06719079       0.004
   0.12646028 -0.03650594 -0.06719079       0.004
  -0.06323014  0.07301188 -0.06719079       0.004
  -0.03161507  0.05475891 -0.06719079       0.004
   0.00000000  0.03650594 -0.06719079       0.004
   0.06323014  0.03650594 -0.06719079       0.004
   0.09484521  0.01825297 -0.06719079       0.004
   0.12646028  0.00000000 -0.06719079       0.004
   0.15807535 -0.01825297 -0.06719079       0.004
  -0.03161507  0.09126485 -0.06719079       0.004
   0.00000000  0.07301188 -0.06719079       0.004
   0.03161507  0.05475891 -0.06719079       0.004
   0.09484521  0.05475891 -0.06719079       0.004
   0.12646028  0.03650594 -0.06719079       0.004
   0.15807535  0.01825297 -0.06719079       0.004
   0.18969042  0.00000000 -0.06719079       0.004
   0.00000000  0.10951782 -0.06719079       0.004
   0.03161507  0.09126485 -0.06719079       0.004
   0.06323014  0.07301188 -0.06719079       0.004
  -0.09484521 -0.05475891 -0.06719079       0.004
  -0.06323014 -0.07301188 -0.06719079       0.004
  -0.03161507 -0.09126485 -0.06719079       0.004
   0.00000000 -0.10951782 -0.06719079       0.004
  -0.18969042  0.00000000 -0.06719079       0.004
  -0.15807535 -0.01825297 -0.06719079       0.004
  -0.12646028 -0.03650594 -0.06719079       0.004
  -0.06323014 -0.03650594 -0.06719079       0.004
  -0.03161507 -0.05475891 -0.06719079       0.004
   0.00000000 -0.07301188 -0.06719079       0.004
   0.03161507 -0.09126485 -0.06719079       0.004
  -0.15807535  0.01825297 -0.06719079       0.004
  -0.12646028  0.00000000 -0.06719079       0.004
  -0.09484521 -0.01825297 -0.06719079       0.004
  -0.03161507 -0.01825297 -0.06719079       0.004
   0.00000000 -0.03650594 -0.06719079       0.004
   0.03161507 -0.05475891 -0.06719079       0.004
   0.06323014 -0.07301188 -0.06719079       0.004
  -0.12646028  0.03650594 -0.06719079       0.004
  -0.09484521  0.01825297 -0.06719079       0.004
  -0.06323014  0.00000000 -0.06719079       0.004
   0.00000000  0.00000000 -0.03359540       0.004
   0.03161507 -0.01825297 -0.03359540       0.004
   0.06323014 -0.03650594 -0.03359540       0.004
   0.09484521 -0.05475891 -0.03359540       0.004
  -0.09484521  0.05475891 -0.03359540       0.004
  -0.06323014  0.03650594 -0.03359540       0.004
  -0.03161507  0.01825297 -0.03359540       0.004
   0.03161507  0.01825297 -0.03359540       0.004
   0.06323014  0.00000000 -0.03359540       0.004
   0.09484521 -0.01825297 -0.03359540       0.004
   0.12646028 -0.03650594 -0.03359540       0.004
  -0.06323014  0.07301188 -0.03359540       0.004
  -0.03161507  0.05475891 -0.03359540       0.004
   0.00000000  0.03650594 -0.03359540       0.004
   0.06323014  0.03650594 -0.03359540       0.004
   0.09484521  0.01825297 -0.03359540       0.004
   0.12646028  0.00000000 -0.03359540       0.004
   0.15807535 -0.01825297 -0.03359540       0.004
  -0.03161507  0.09126485 -0.03359540       0.004
   0.00000000  0.07301188 -0.03359540       0.004
   0.03161507  0.05475891 -0.03359540       0.004
   0.09484521  0.05475891 -0.03359540       0.004
   0.12646028  0.03650594 -0.03359540       0.004
   0.15807535  0.01825297 -0.03359540       0.004
   0.18969042  0.00000000 -0.03359540       0.004
   0.00000000  0.10951782 -0.03359540       0.004
   0.03161507  0.09126485 -0.03359540       0.004
   0.06323014  0.07301188 -0.03359540       0.004
  -0.09484521 -0.05475891 -0.03359540       0.004
  -0.06323014 -0.07301188 -0.03359540       0.004
  -0.03161507 -0.09126485 -0.03359540       0.004
   0.00000000 -0.10951782 -0.03359540       0.004
  -0.18969042  0.00000000 -0.03359540       0.004
  -0.15807535 -0.01825297 -0.03359540       0.004
  -0.12646028 -0.03650594 -0.03359540       0.004
  -0.06323014 -0.03650594 -0.03359540       0.004
  -0.03161507 -0.05475891 -0.03359540       0.004
   0.00000000 -0.07301188 -0.03359540       0.004
   0.03161507 -0.09126485 -0.03359540       0.004
  -0.15807535  0.01825297 -0.03359540       0.004
  -0.12646028  0.00000000 -0.03359540       0.004
  -0.09484521 -0.01825297 -0.03359540       0.004
  -0.03161507 -0.01825297 -0.03359540       0.004
   0.00000000 -0.03650594 -0.03359540       0.004
   0.03161507 -0.05475891 -0.03359540       0.004
   0.06323014 -0.07301188 -0.03359540       0.004
  -0.12646028  0.03650594 -0.03359540       0.004
  -0.09484521  0.01825297 -0.03359540       0.004
  -0.06323014  0.00000000 -0.03359540       0.004

 k-points in reciprocal lattice and weights: K-point                                 
   0.00000000  0.00000000  0.00000000       0.004
   0.14285714  0.00000000  0.00000000       0.004
   0.28571429  0.00000000  0.00000000       0.004
   0.42857143  0.00000000  0.00000000       0.004
  -0.42857143  0.00000000  0.00000000       0.004
  -0.28571429  0.00000000  0.00000000       0.004
  -0.14285714  0.00000000  0.00000000       0.004
   0.00000000  0.14285714  0.00000000       0.004
   0.14285714  0.14285714  0.00000000       0.004
   0.28571429  0.14285714  0.00000000       0.004
   0.42857143  0.14285714  0.00000000       0.004
  -0.42857143  0.14285714  0.00000000       0.004
  -0.28571429  0.14285714  0.00000000       0.004
  -0.14285714  0.14285714  0.00000000       0.004
   0.00000000  0.28571429  0.00000000       0.004
   0.14285714  0.28571429  0.00000000       0.004
   0.28571429  0.28571429  0.00000000       0.004
   0.42857143  0.28571429  0.00000000       0.004
  -0.42857143  0.28571429  0.00000000       0.004
  -0.28571429  0.28571429  0.00000000       0.004
  -0.14285714  0.28571429  0.00000000       0.004
   0.00000000  0.42857143  0.00000000       0.004
   0.14285714  0.42857143  0.00000000       0.004
   0.28571429  0.42857143  0.00000000       0.004
   0.42857143  0.42857143  0.00000000       0.004
  -0.42857143  0.42857143  0.00000000       0.004
  -0.28571429  0.42857143  0.00000000       0.004
  -0.14285714  0.42857143  0.00000000       0.004
   0.00000000 -0.42857143  0.00000000       0.004
   0.14285714 -0.42857143  0.00000000       0.004
   0.28571429 -0.42857143  0.00000000       0.004
   0.42857143 -0.42857143  0.00000000       0.004
  -0.42857143 -0.42857143  0.00000000       0.004
  -0.28571429 -0.42857143  0.00000000       0.004
  -0.14285714 -0.42857143  0.00000000       0.004
   0.00000000 -0.28571429  0.00000000       0.004
   0.14285714 -0.28571429  0.00000000       0.004
   0.28571429 -0.28571429  0.00000000       0.004
   0.42857143 -0.28571429  0.00000000       0.004
  -0.42857143 -0.28571429  0.00000000       0.004
  -0.28571429 -0.28571429  0.00000000       0.004
  -0.14285714 -0.28571429  0.00000000       0.004
   0.00000000 -0.14285714  0.00000000       0.004
   0.14285714 -0.14285714  0.00000000       0.004
   0.28571429 -0.14285714  0.00000000       0.004
   0.42857143 -0.14285714  0.00000000       0.004
  -0.42857143 -0.14285714  0.00000000       0.004
  -0.28571429 -0.14285714  0.00000000       0.004
  -0.14285714 -0.14285714  0.00000000       0.004
   0.00000000  0.00000000  0.20000000       0.004
   0.14285714  0.00000000  0.20000000       0.004
   0.28571429  0.00000000  0.20000000       0.004
   0.42857143  0.00000000  0.20000000       0.004
  -0.42857143  0.00000000  0.20000000       0.004
  -0.28571429  0.00000000  0.20000000       0.004
  -0.14285714  0.00000000  0.20000000       0.004
   0.00000000  0.14285714  0.20000000       0.004
   0.14285714  0.14285714  0.20000000       0.004
   0.28571429  0.14285714  0.20000000       0.004
   0.42857143  0.14285714  0.20000000       0.004
  -0.42857143  0.14285714  0.20000000       0.004
  -0.28571429  0.14285714  0.20000000       0.004
  -0.14285714  0.14285714  0.20000000       0.004
   0.00000000  0.28571429  0.20000000       0.004
   0.14285714  0.28571429  0.20000000       0.004
   0.28571429  0.28571429  0.20000000       0.004
   0.42857143  0.28571429  0.20000000       0.004
  -0.42857143  0.28571429  0.20000000       0.004
  -0.28571429  0.28571429  0.20000000       0.004
  -0.14285714  0.28571429  0.20000000       0.004
   0.00000000  0.42857143  0.20000000       0.004
   0.14285714  0.42857143  0.20000000       0.004
   0.28571429  0.42857143  0.20000000       0.004
   0.42857143  0.42857143  0.20000000       0.004
  -0.42857143  0.42857143  0.20000000       0.004
  -0.28571429  0.42857143  0.20000000       0.004
  -0.14285714  0.42857143  0.20000000       0.004
   0.00000000 -0.42857143  0.20000000       0.004
   0.14285714 -0.42857143  0.20000000       0.004
   0.28571429 -0.42857143  0.20000000       0.004
   0.42857143 -0.42857143  0.20000000       0.004
  -0.42857143 -0.42857143  0.20000000       0.004
  -0.28571429 -0.42857143  0.20000000       0.004
  -0.14285714 -0.42857143  0.20000000       0.004
   0.00000000 -0.28571429  0.20000000       0.004
   0.14285714 -0.28571429  0.20000000       0.004
   0.28571429 -0.28571429  0.20000000       0.004
   0.42857143 -0.28571429  0.20000000       0.004
  -0.42857143 -0.28571429  0.20000000       0.004
  -0.28571429 -0.28571429  0.20000000       0.004
  -0.14285714 -0.28571429  0.20000000       0.004
   0.00000000 -0.14285714  0.20000000       0.004
   0.14285714 -0.14285714  0.20000000       0.004
   0.28571429 -0.14285714  0.20000000       0.004
   0.42857143 -0.14285714  0.20000000       0.004
  -0.42857143 -0.14285714  0.20000000       0.004
  -0.28571429 -0.14285714  0.20000000       0.004
  -0.14285714 -0.14285714  0.20000000       0.004
   0.00000000  0.00000000  0.40000000       0.004
   0.14285714  0.00000000  0.40000000       0.004
   0.28571429  0.00000000  0.40000000       0.004
   0.42857143  0.00000000  0.40000000       0.004
  -0.42857143  0.00000000  0.40000000       0.004
  -0.28571429  0.00000000  0.40000000       0.004
  -0.14285714  0.00000000  0.40000000       0.004
   0.00000000  0.14285714  0.40000000       0.004
   0.14285714  0.14285714  0.40000000       0.004
   0.28571429  0.14285714  0.40000000       0.004
   0.42857143  0.14285714  0.40000000       0.004
  -0.42857143  0.14285714  0.40000000       0.004
  -0.28571429  0.14285714  0.40000000       0.004
  -0.14285714  0.14285714  0.40000000       0.004
   0.00000000  0.28571429  0.40000000       0.004
   0.14285714  0.28571429  0.40000000       0.004
   0.28571429  0.28571429  0.40000000       0.004
   0.42857143  0.28571429  0.40000000       0.004
  -0.42857143  0.28571429  0.40000000       0.004
  -0.28571429  0.28571429  0.40000000       0.004
  -0.14285714  0.28571429  0.40000000       0.004
   0.00000000  0.42857143  0.40000000       0.004
   0.14285714  0.42857143  0.40000000       0.004
   0.28571429  0.42857143  0.40000000       0.004
   0.42857143  0.42857143  0.40000000       0.004
  -0.42857143  0.42857143  0.40000000       0.004
  -0.28571429  0.42857143  0.40000000       0.004
  -0.14285714  0.42857143  0.40000000       0.004
   0.00000000 -0.42857143  0.40000000       0.004
   0.14285714 -0.42857143  0.40000000       0.004
   0.28571429 -0.42857143  0.40000000       0.004
   0.42857143 -0.42857143  0.40000000       0.004
  -0.42857143 -0.42857143  0.40000000       0.004
  -0.28571429 -0.42857143  0.40000000       0.004
  -0.14285714 -0.42857143  0.40000000       0.004
   0.00000000 -0.28571429  0.40000000       0.004
   0.14285714 -0.28571429  0.40000000       0.004
   0.28571429 -0.28571429  0.40000000       0.004
   0.42857143 -0.28571429  0.40000000       0.004
  -0.42857143 -0.28571429  0.40000000       0.004
  -0.28571429 -0.28571429  0.40000000       0.004
  -0.14285714 -0.28571429  0.40000000       0.004
   0.00000000 -0.14285714  0.40000000       0.004
   0.14285714 -0.14285714  0.40000000       0.004
   0.28571429 -0.14285714  0.40000000       0.004
   0.42857143 -0.14285714  0.40000000       0.004
  -0.42857143 -0.14285714  0.40000000       0.004
  -0.28571429 -0.14285714  0.40000000       0.004
  -0.14285714 -0.14285714  0.40000000       0.004
   0.00000000  0.00000000 -0.40000000       0.004
   0.14285714  0.00000000 -0.40000000       0.004
   0.28571429  0.00000000 -0.40000000       0.004
   0.42857143  0.00000000 -0.40000000       0.004
  -0.42857143  0.00000000 -0.40000000       0.004
  -0.28571429  0.00000000 -0.40000000       0.004
  -0.14285714  0.00000000 -0.40000000       0.004
   0.00000000  0.14285714 -0.40000000       0.004
   0.14285714  0.14285714 -0.40000000       0.004
   0.28571429  0.14285714 -0.40000000       0.004
   0.42857143  0.14285714 -0.40000000       0.004
  -0.42857143  0.14285714 -0.40000000       0.004
  -0.28571429  0.14285714 -0.40000000       0.004
  -0.14285714  0.14285714 -0.40000000       0.004
   0.00000000  0.28571429 -0.40000000       0.004
   0.14285714  0.28571429 -0.40000000       0.004
   0.28571429  0.28571429 -0.40000000       0.004
   0.42857143  0.28571429 -0.40000000       0.004
  -0.42857143  0.28571429 -0.40000000       0.004
  -0.28571429  0.28571429 -0.40000000       0.004
  -0.14285714  0.28571429 -0.40000000       0.004
   0.00000000  0.42857143 -0.40000000       0.004
   0.14285714  0.42857143 -0.40000000       0.004
   0.28571429  0.42857143 -0.40000000       0.004
   0.42857143  0.42857143 -0.40000000       0.004
  -0.42857143  0.42857143 -0.40000000       0.004
  -0.28571429  0.42857143 -0.40000000       0.004
  -0.14285714  0.42857143 -0.40000000       0.004
   0.00000000 -0.42857143 -0.40000000       0.004
   0.14285714 -0.42857143 -0.40000000       0.004
   0.28571429 -0.42857143 -0.40000000       0.004
   0.42857143 -0.42857143 -0.40000000       0.004
  -0.42857143 -0.42857143 -0.40000000       0.004
  -0.28571429 -0.42857143 -0.40000000       0.004
  -0.14285714 -0.42857143 -0.40000000       0.004
   0.00000000 -0.28571429 -0.40000000       0.004
   0.14285714 -0.28571429 -0.40000000       0.004
   0.28571429 -0.28571429 -0.40000000       0.004
   0.42857143 -0.28571429 -0.40000000       0.004
  -0.42857143 -0.28571429 -0.40000000       0.004
  -0.28571429 -0.28571429 -0.40000000       0.004
  -0.14285714 -0.28571429 -0.40000000       0.004
   0.00000000 -0.14285714 -0.40000000       0.004
   0.14285714 -0.14285714 -0.40000000       0.004
   0.28571429 -0.14285714 -0.40000000       0.004
   0.42857143 -0.14285714 -0.40000000       0.004
  -0.42857143 -0.14285714 -0.40000000       0.004
  -0.28571429 -0.14285714 -0.40000000       0.004
  -0.14285714 -0.14285714 -0.40000000       0.004
   0.00000000  0.00000000 -0.20000000       0.004
   0.14285714  0.00000000 -0.20000000       0.004
   0.28571429  0.00000000 -0.20000000       0.004
   0.42857143  0.00000000 -0.20000000       0.004
  -0.42857143  0.00000000 -0.20000000       0.004
  -0.28571429  0.00000000 -0.20000000       0.004
  -0.14285714  0.00000000 -0.20000000       0.004
   0.00000000  0.14285714 -0.20000000       0.004
   0.14285714  0.14285714 -0.20000000       0.004
   0.28571429  0.14285714 -0.20000000       0.004
   0.42857143  0.14285714 -0.20000000       0.004
  -0.42857143  0.14285714 -0.20000000       0.004
  -0.28571429  0.14285714 -0.20000000       0.004
  -0.14285714  0.14285714 -0.20000000       0.004
   0.00000000  0.28571429 -0.20000000       0.004
   0.14285714  0.28571429 -0.20000000       0.004
   0.28571429  0.28571429 -0.20000000       0.004
   0.42857143  0.28571429 -0.20000000       0.004
  -0.42857143  0.28571429 -0.20000000       0.004
  -0.28571429  0.28571429 -0.20000000       0.004
  -0.14285714  0.28571429 -0.20000000       0.004
   0.00000000  0.42857143 -0.20000000       0.004
   0.14285714  0.42857143 -0.20000000       0.004
   0.28571429  0.42857143 -0.20000000       0.004
   0.42857143  0.42857143 -0.20000000       0.004
  -0.42857143  0.42857143 -0.20000000       0.004
  -0.28571429  0.42857143 -0.20000000       0.004
  -0.14285714  0.42857143 -0.20000000       0.004
   0.00000000 -0.42857143 -0.20000000       0.004
   0.14285714 -0.42857143 -0.20000000       0.004
   0.28571429 -0.42857143 -0.20000000       0.004
   0.42857143 -0.42857143 -0.20000000       0.004
  -0.42857143 -0.42857143 -0.20000000       0.004
  -0.28571429 -0.42857143 -0.20000000       0.004
  -0.14285714 -0.42857143 -0.20000000       0.004
   0.00000000 -0.28571429 -0.20000000       0.004
   0.14285714 -0.28571429 -0.20000000       0.004
   0.28571429 -0.28571429 -0.20000000       0.004
   0.42857143 -0.28571429 -0.20000000       0.004
  -0.42857143 -0.28571429 -0.20000000       0.004
  -0.28571429 -0.28571429 -0.20000000       0.004
  -0.14285714 -0.28571429 -0.20000000       0.004
   0.00000000 -0.14285714 -0.20000000       0.004
   0.14285714 -0.14285714 -0.20000000       0.004
   0.28571429 -0.14285714 -0.20000000       0.004
   0.42857143 -0.14285714 -0.20000000       0.004
  -0.42857143 -0.14285714 -0.20000000       0.004
  -0.28571429 -0.14285714 -0.20000000       0.004
  -0.14285714 -0.14285714 -0.20000000       0.004

 position of ions in fractional coordinates (direct lattice) 
   0.26862376  0.00000000  0.16666667
   0.00000000  0.26862376  0.83333333
   0.73137624  0.73137624  0.50000000

 position of ions in cartesian coordinates  (Angst):
   0.60690712 -1.05119396  0.99219945
   0.60690712  1.05119396  4.96099723
   3.30482638  0.00000000  2.97659834



--------------------------------------------------------------------------------------------------------


 k-point  1 :   0.0000 0.0000 0.0000  plane waves:    2691
 k-point  2 :   0.1429 0.0000 0.0000  plane waves:    2666
 k-point  3 :   0.2857 0.0000 0.0000  plane waves:    2664
 k-point  4 :   0.4286 0.0000 0.0000  plane waves:    2684
 k-point  5 :  -0.4286 0.0000 0.0000  plane waves:    2684
 k-point  6 :  -0.2857 0.0000 0.0000  plane waves:    2664
 k-point  7 :  -0.1429 0.0000 0.0000  plane waves:    2666
 k-point  8 :   0.0000 0.1429 0.0000  plane waves:    2666
 k-point  9 :   0.1429 0.1429 0.0000  plane waves:    2682
 k-point 10 :   0.2857 0.1429 0.0000  plane waves:    2681
 k-point 11 :   0.4286 0.1429 0.0000  plane waves:    2666
 k-point 12 :  -0.4286 0.1429 0.0000  plane waves:    2681
 k-point 13 :  -0.2857 0.1429 0.0000  plane waves:    2682
 k-point 14 :  -0.1429 0.1429 0.0000  plane waves:    2666
 k-point 15 :   0.0000 0.2857 0.0000  plane waves:    2664
 k-point 16 :   0.1429 0.2857 0.0000  plane waves:    2681
 k-point 17 :   0.2857 0.2857 0.0000  plane waves:    2652
 k-point 18 :   0.4286 0.2857 0.0000  plane waves:    2652
 k-point 19 :  -0.4286 0.2857 0.0000  plane waves:    2681
 k-point 20 :  -0.2857 0.2857 0.0000  plane waves:    2664
 k-point 21 :  -0.1429 0.2857 0.0000  plane waves:    2682
 k-point 22 :   0.0000 0.4286 0.0000  plane waves:    2684
 k-point 23 :   0.1429 0.4286 0.0000  plane waves:    2666
 k-point 24 :   0.2857 0.4286 0.0000  plane waves:    2652
 k-point 25 :   0.4286 0.4286 0.0000  plane waves:    2666
 k-point 26 :  -0.4286 0.4286 0.0000  plane waves:    2684
 k-point 27 :  -0.2857 0.4286 0.0000  plane waves:    2681
 k-point 28 :  -0.1429 0.4286 0.0000  plane waves:    2681
 k-point 29 :   0.0000-0.4286 0.0000  plane waves:    2684
 k-point 30 :   0.1429-0.4286 0.0000  plane waves:    2681
 k-point 31 :   0.2857-0.4286 0.0000  plane waves:    2681
 k-point 32 :   0.4286-0.4286 0.0000  plane waves:    2684
 k-point 33 :  -0.4286-0.4286 0.0000  plane waves:    2666
 k-point 34 :  -0.2857-0.4286 0.0000  plane waves:    2652
 k-point 35 :  -0.1429-0.4286 0.0000  plane waves:    2666
 k-point 36 :   0.0000-0.2857 0.0000  plane waves:    2664
 k-point 37 :   0.1429-0.2857 0.0000  plane waves:    2682
 k-point 38 :   0.2857-0.2857 0.0000  plane waves:    2664
 k-point 39 :   0.4286-0.2857 0.0000  plane waves:    2681
 k-point 40 :  -0.4286-0.2857 0.0000  plane waves:    2652
 k-point 41 :  -0.2857-0.2857 0.0000  plane waves:    2652
 k-point 42 :  -0.1429-0.2857 0.0000  plane waves:    2681
 k-point 43 :   0.0000-0.1429 0.0000  plane waves:    2666
 k-point 44 :   0.1429-0.1429 0.0000  plane waves:    2666
 k-point 45 :   0.2857-0.1429 0.0000  plane waves:    2682
 k-point 46 :   0.4286-0.1429 0.0000  plane waves:    2681
 k-point 47 :  -0.4286-0.1429 0.0000  plane waves:    2666
 k-point 48 :  -0.2857-0.1429 0.0000  plane waves:    2681
 k-point 49 :  -0.1429-0.1429 0.0000  plane waves:    2682
 k-point 50 :   0.0000 0.0000 0.2000  plane waves:    2680
 k-point 51 :   0.1429 0.0000 0.2000  plane waves:    2673
 k-point 52 :   0.2857 0.0000 0.2000  plane waves:    2668
 k-point 53 :   0.4286 0.0000 0.2000  plane waves:    2676
 k-point 54 :  -0.4286 0.0000 0.2000  plane waves:    2676
 k-point 55 :  -0.2857 0.0000 0.2000  plane waves:    2668
 k-point 56 :  -0.1429 0.0000 0.2000  plane waves:    2673
 k-point 57 :   0.0000 0.1429 0.2000  plane waves:    2673
 k-point 58 :   0.1429 0.1429 0.2000  plane waves:    2674
 k-point 59 :   0.2857 0.1429 0.2000  plane waves:    2670
 k-point 60 :   0.4286 0.1429 0.2000  plane waves:    2669
 k-point 61 :  -0.4286 0.1429 0.2000  plane waves:    2670
 k-point 62 :  -0.2857 0.1429 0.2000  plane waves:    2674
 k-point 63 :  -0.1429 0.1429 0.2000  plane waves:    2673
 k-point 64 :   0.0000 0.2857 0.2000  plane waves:    2668
 k-point 65 :   0.1429 0.2857 0.2000  plane waves:    2670
 k-point 66 :   0.2857 0.2857 0.2000  plane waves:    2664
 k-point 67 :   0.4286 0.2857 0.2000  plane waves:    2664
 k-point 68 :  -0.4286 0.2857 0.2000  plane waves:    2670
 k-point 69 :  -0.2857 0.2857 0.2000  plane waves:    2668
 k-point 70 :  -0.1429 0.2857 0.2000  plane waves:    2674
 k-point 71 :   0.0000 0.4286 0.2000  plane waves:    2676
 k-point 72 :   0.1429 0.4286 0.2000  plane waves:    2669
 k-point 73 :   0.2857 0.4286 0.2000  plane waves:    2664
 k-point 74 :   0.4286 0.4286 0.2000  plane waves:    2669
 k-point 75 :  -0.4286 0.4286 0.2000  plane waves:    2676
 k-point 76 :  -0.2857 0.4286 0.2000  plane waves:    2670
 k-point 77 :  -0.1429 0.4286 0.2000  plane waves:    2670
 k-point 78 :   0.0000-0.4286 0.2000  plane waves:    2676
 k-point 79 :   0.1429-0.4286 0.2000  plane waves:    2670
 k-point 80 :   0.2857-0.4286 0.2000  plane waves:    2670
 k-point 81 :   0.4286-0.4286 0.2000  plane waves:    2676
 k-point 82 :  -0.4286-0.4286 0.2000  plane waves:    2669
 k-point 83 :  -0.2857-0.4286 0.2000  plane waves:    2664
 k-point 84 :  -0.1429-0.4286 0.2000  plane waves:    2669
 k-point 85 :   0.0000-0.2857 0.2000  plane waves:    2668
 k-point 86 :   0.1429-0.2857 0.2000  plane waves:    2674
 k-point 87 :   0.2857-0.2857 0.2000  plane waves:    2668
 k-point 88 :   0.4286-0.2857 0.2000  plane waves:    2670
 k-point 89 :  -0.4286-0.2857 0.2000  plane waves:    2664
 k-point 90 :  -0.2857-0.2857 0.2000  plane waves:    2664
 k-point 91 :  -0.1429-0.2857 0.2000  plane waves:    2670
 k-point 92 :   0.0000-0.1429 0.2000  plane waves:    2673
 k-point 93 :   0.1429-0.1429 0.2000  plane waves:    2673
 k-point 94 :   0.2857-0.1429 0.2000  plane waves:    2674
 k-point 95 :   0.4286-0.1429 0.2000  plane waves:    2670
 k-point 96 :  -0.4286-0.1429 0.2000  plane waves:    2669
 k-point 97 :  -0.2857-0.1429 0.2000  plane waves:    2670
 k-point 98 :  -0.1429-0.1429 0.2000  plane waves:    2674
 k-point 99 :   0.0000 0.0000 0.4000  plane waves:    2656
 k-point ** :   0.1429 0.0000 0.4000  plane waves:    2675
 k-point ** :   0.2857 0.0000 0.4000  plane waves:    2674
 k-point ** :   0.4286 0.0000 0.4000  plane waves:    2677
 k-point ** :  -0.4286 0.0000 0.4000  plane waves:    2677
 k-point ** :  -0.2857 0.0000 0.4000  plane waves:    2674
 k-point ** :  -0.1429 0.0000 0.4000  plane waves:    2675
 k-point ** :   0.0000 0.1429 0.4000  plane waves:    2675
 k-point ** :   0.1429 0.1429 0.4000  plane waves:    2667
 k-point ** :   0.2857 0.1429 0.4000  plane waves:    2673
 k-point ** :   0.4286 0.1429 0.4000  plane waves:    2678
 k-point ** :  -0.4286 0.1429 0.4000  plane waves:    2673
 k-point ** :  -0.2857 0.1429 0.4000  plane waves:    2667
 k-point ** :  -0.1429 0.1429 0.4000  plane waves:    2675
 k-point ** :   0.0000 0.2857 0.4000  plane waves:    2674
 k-point ** :   0.1429 0.2857 0.4000  plane waves:    2673
 k-point ** :   0.2857 0.2857 0.4000  plane waves:    2683
 k-point ** :   0.4286 0.2857 0.4000  plane waves:    2683
 k-point ** :  -0.4286 0.2857 0.4000  plane waves:    2673
 k-point ** :  -0.2857 0.2857 0.4000  plane waves:    2674
 k-point ** :  -0.1429 0.2857 0.4000  plane waves:    2667
 k-point ** :   0.0000 0.4286 0.4000  plane waves:    2677
 k-point ** :   0.1429 0.4286 0.4000  plane waves:    2678
 k-point ** :   0.2857 0.4286 0.4000  plane waves:    2683
 k-point ** :   0.4286 0.4286 0.4000  plane waves:    2678
 k-point ** :  -0.4286 0.4286 0.4000  plane waves:    2677
 k-point ** :  -0.2857 0.4286 0.4000  plane waves:    2673
 k-point ** :  -0.1429 0.4286 0.4000  plane waves:    2673
 k-point ** :   0.0000-0.4286 0.4000  plane waves:    2677
 k-point ** :   0.1429-0.4286 0.4000  plane waves:    2673
 k-point ** :   0.2857-0.4286 0.4000  plane waves:    2673
 k-point ** :   0.4286-0.4286 0.4000  plane waves:    2677
 k-point ** :  -0.4286-0.4286 0.4000  plane waves:    2678
 k-point ** :  -0.2857-0.4286 0.4000  plane waves:    2683
 k-point ** :  -0.1429-0.4286 0.4000  plane waves:    2678
 k-point ** :   0.0000-0.2857 0.4000  plane waves:    2674
 k-point ** :   0.1429-0.2857 0.4000  plane waves:    2667
 k-point ** :   0.2857-0.2857 0.4000  plane waves:    2674
 k-point ** :   0.4286-0.2857 0.4000  plane waves:    2673
 k-point ** :  -0.4286-0.2857 0.4000  plane waves:    2683
 k-point ** :  -0.2857-0.2857 0.4000  plane waves:    2683
 k-point ** :  -0.1429-0.2857 0.4000  plane waves:    2673
 k-point ** :   0.0000-0.1429 0.4000  plane waves:    2675
 k-point ** :   0.1429-0.1429 0.4000  plane waves:    2675
 k-point ** :   0.2857-0.1429 0.4000  plane waves:    2667
 k-point ** :   0.4286-0.1429 0.4000  plane waves:    2673
 k-point ** :  -0.4286-0.1429 0.4000  plane waves:    2678
 k-point ** :  -0.2857-0.1429 0.4000  plane waves:    2673
 k-point ** :  -0.1429-0.1429 0.4000  plane waves:    2667
 k-point ** :   0.0000 0.0000-0.4000  plane waves:    2656
 k-point ** :   0.1429 0.0000-0.4000  plane waves:    2675
 k-point ** :   0.2857 0.0000-0.4000  plane waves:    2674
 k-point ** :   0.4286 0.0000-0.4000  plane waves:    2677
 k-point ** :  -0.4286 0.0000-0.4000  plane waves:    2677
 k-point ** :  -0.2857 0.0000-0.4000  plane waves:    2674
 k-point ** :  -0.1429 0.0000-0.4000  plane waves:    2675
 k-point ** :   0.0000 0.1429-0.4000  plane waves:    2675
 k-point ** :   0.1429 0.1429-0.4000  plane waves:    2667
 k-point ** :   0.2857 0.1429-0.4000  plane waves:    2673
 k-point ** :   0.4286 0.1429-0.4000  plane waves:    2678
 k-point ** :  -0.4286 0.1429-0.4000  plane waves:    2673
 k-point ** :  -0.2857 0.1429-0.4000  plane waves:    2667
 k-point ** :  -0.1429 0.1429-0.4000  plane waves:    2675
 k-point ** :   0.0000 0.2857-0.4000  plane waves:    2674
 k-point ** :   0.1429 0.2857-0.4000  plane waves:    2673
 k-point ** :   0.2857 0.2857-0.4000  plane waves:    2683
 k-point ** :   0.4286 0.2857-0.4000  plane waves:    2683
 k-point ** :  -0.4286 0.2857-0.4000  plane waves:    2673
 k-point ** :  -0.2857 0.2857-0.4000  plane waves:    2674
 k-point ** :  -0.1429 0.2857-0.4000  plane waves:    2667
 k-point ** :   0.0000 0.4286-0.4000  plane waves:    2677
 k-point ** :   0.1429 0.4286-0.4000  plane waves:    2678
 k-point ** :   0.2857 0.4286-0.4000  plane waves:    2683
 k-point ** :   0.4286 0.4286-0.4000  plane waves:    2678
 k-point ** :  -0.4286 0.4286-0.4000  plane waves:    2677
 k-point ** :  -0.2857 0.4286-0.4000  plane waves:    2673
 k-point ** :  -0.1429 0.4286-0.4000  plane waves:    2673
 k-point ** :   0.0000-0.4286-0.4000  plane waves:    2677
 k-point ** :   0.1429-0.4286-0.4000  plane waves:    2673
 k-point ** :   0.2857-0.4286-0.4000  plane waves:    2673
 k-point ** :   0.4286-0.4286-0.4000  plane waves:    2677
 k-point ** :  -0.4286-0.4286-0.4000  plane waves:    2678
 k-point ** :  -0.2857-0.4286-0.4000  plane waves:    2683
 k-point ** :  -0.1429-0.4286-0.4000  plane waves:    2678
 k-point ** :   0.0000-0.2857-0.4000  plane waves:    2674
 k-point ** :   0.1429-0.2857-0.4000  plane waves:    2667
 k-point ** :   0.2857-0.2857-0.4000  plane waves:    2674
 k-point ** :   0.4286-0.2857-0.4000  plane waves:    2673
 k-point ** :  -0.4286-0.2857-0.4000  plane waves:    2683
 k-point ** :  -0.2857-0.2857-0.4000  plane waves:    2683
 k-point ** :  -0.1429-0.2857-0.4000  plane waves:    2673
 k-point ** :   0.0000-0.1429-0.4000  plane waves:    2675
 k-point ** :   0.1429-0.1429-0.4000  plane waves:    2675
 k-point ** :   0.2857-0.1429-0.4000  plane waves:    2667
 k-point ** :   0.4286-0.1429-0.4000  plane waves:    2673
 k-point ** :  -0.4286-0.1429-0.4000  plane waves:    2678
 k-point ** :  -0.2857-0.1429-0.4000  plane waves:    2673
 k-point ** :  -0.1429-0.1429-0.4000  plane waves:    2667
 k-point ** :   0.0000 0.0000-0.2000  plane waves:    2680
 k-point ** :   0.1429 0.0000-0.2000  plane waves:    2673
 k-point ** :   0.2857 0.0000-0.2000  plane waves:    2668
 k-point ** :   0.4286 0.0000-0.2000  plane waves:    2676
 k-point ** :  -0.4286 0.0000-0.2000  plane waves:    2676
 k-point ** :  -0.2857 0.0000-0.2000  plane waves:    2668
 k-point ** :  -0.1429 0.0000-0.2000  plane waves:    2673
 k-point ** :   0.0000 0.1429-0.2000  plane waves:    2673
 k-point ** :   0.1429 0.1429-0.2000  plane waves:    2674
 k-point ** :   0.2857 0.1429-0.2000  plane waves:    2670
 k-point ** :   0.4286 0.1429-0.2000  plane waves:    2669
 k-point ** :  -0.4286 0.1429-0.2000  plane waves:    2670
 k-point ** :  -0.2857 0.1429-0.2000  plane waves:    2674
 k-point ** :  -0.1429 0.1429-0.2000  plane waves:    2673
 k-point ** :   0.0000 0.2857-0.2000  plane waves:    2668
 k-point ** :   0.1429 0.2857-0.2000  plane waves:    2670
 k-point ** :   0.2857 0.2857-0.2000  plane waves:    2664
 k-point ** :   0.4286 0.2857-0.2000  plane waves:    2664
 k-point ** :  -0.4286 0.2857-0.2000  plane waves:    2670
 k-point ** :  -0.2857 0.2857-0.2000  plane waves:    2668
 k-point ** :  -0.1429 0.2857-0.2000  plane waves:    2674
 k-point ** :   0.0000 0.4286-0.2000  plane waves:    2676
 k-point ** :   0.1429 0.4286-0.2000  plane waves:    2669
 k-point ** :   0.2857 0.4286-0.2000  plane waves:    2664
 k-point ** :   0.4286 0.4286-0.2000  plane waves:    2669
 k-point ** :  -0.4286 0.4286-0.2000  plane waves:    2676
 k-point ** :  -0.2857 0.4286-0.2000  plane waves:    2670
 k-point ** :  -0.1429 0.4286-0.2000  plane waves:    2670
 k-point ** :   0.0000-0.4286-0.2000  plane waves:    2676
 k-point ** :   0.1429-0.4286-0.2000  plane waves:    2670
 k-point ** :   0.2857-0.4286-0.2000  plane waves:    2670
 k-point ** :   0.4286-0.4286-0.2000  plane waves:    2676
 k-point ** :  -0.4286-0.4286-0.2000  plane waves:    2669
 k-point ** :  -0.2857-0.4286-0.2000  plane waves:    2664
 k-point ** :  -0.1429-0.4286-0.2000  plane waves:    2669
 k-point ** :   0.0000-0.2857-0.2000  plane waves:    2668
 k-point ** :   0.1429-0.2857-0.2000  plane waves:    2674
 k-point ** :   0.2857-0.2857-0.2000  plane waves:    2668
 k-point ** :   0.4286-0.2857-0.2000  plane waves:    2670
 k-point ** :  -0.4286-0.2857-0.2000  plane waves:    2664
 k-point ** :  -0.2857-0.2857-0.2000  plane waves:    2664
 k-point ** :  -0.1429-0.2857-0.2000  plane waves:    2670
 k-point ** :   0.0000-0.1429-0.2000  plane waves:    2673
 k-point ** :   0.1429-0.1429-0.2000  plane waves:    2673
 k-point ** :   0.2857-0.1429-0.2000  plane waves:    2674
 k-point ** :   0.4286-0.1429-0.2000  plane waves:    2670
 k-point ** :  -0.4286-0.1429-0.2000  plane waves:    2669
 k-point ** :  -0.2857-0.1429-0.2000  plane waves:    2670
 k-point ** :  -0.1429-0.1429-0.2000  plane waves:    2674

 maximum and minimum number of plane-waves per node :      2691     2652

 maximum number of plane-waves:      2691
 maximum index in each direction: 
   IXMAX=    8   IYMAX=    8   IZMAX=   11
   IXMIN=   -8   IYMIN=   -8   IZMIN=  -11


 serial   3D FFT for wavefunctions
 parallel 3D FFT for charge:
    minimum data exchange during FFTs selected (reduces bandwidth)


 total amount of memory used by VASP MPI-rank0   197103. kBytes
=======================================================================

   base      :      30000. kBytes
   nonl-proj :      68721. kBytes
   fftplans  :       8774. kBytes
   grid      :      14618. kBytes
   one-center:         24. kBytes
   wavefun   :      74966. kBytes

     INWAV:  cpu time    0.4890: real time    0.7910
 Broyden mixing: mesh for mixing (old mesh)
   NGX = 17   NGY = 17   NGZ = 21
  (NGX  = 72   NGY  = 72   NGZ  = 96)
  gives a total of   6069 points

 charge density for first step will be calculated from the start-wavefunctions


--------------------------------------------------------------------------------------------------------


 Maximum index for augmentation-charges        16687 (set IRDMAX)


--------------------------------------------------------------------------------------------------------


 initial charge from wavefunction
 First call to EWALD:  gamma=   0.375
 Maximum number of real-space cells 3x 3x 2
 Maximum number of reciprocal cells 3x 3x 3

    FEWALD:  cpu time    0.0006: real time    0.0006


--------------------------------------- Iteration      1(   1)  ---------------------------------------


    POTLOK:  cpu time    0.1429: real time    0.1451
    SETDIJ:  cpu time    0.2401: real time    0.2410
     EDDAV:  cpu time   26.4992: real time   29.1457
 BZINTS: Fermi energy:  6.625625; 18.000000 electrons
         Band energy:  13.636976;  BLOECHL correction: -0.017134
       DOS:  cpu time    0.0637: real time    0.0695
    CHARGE:  cpu time    1.7792: real time    2.0537
    MIXING:  cpu time    0.0057: real time    0.0057
    --------------------------------------------
      LOOP:  cpu time   28.7309: real time   31.6607

 eigenvalue-minimisations  : 10122
 total energy-change (2. order) :-0.3803825E+01  (-0.7330014E+02)
 number of electron      17.9999999 magnetization 
 augmentation part       -3.0922405 magnetization 

 Broyden mixing:
  rms(total) = 0.28999E+02    rms(broyden)= 0.28999E+02
  rms(prec ) = 0.29017E+02
  weight for this iteration     100.00

 Free energy of the ion-electron system (eV)
  ---------------------------------------------------
  alpha Z        PSCENC =         2.22054736
  Ewald energy   TEWEN  =      -667.17188197
  -Hartree energ DENC   =       -49.48332598
  -exchange      EXHF   =         0.00000000
  -V(xc)+E(xc)   XCENC  =       -85.07598207
  PAW double counting   =     92886.69816009   -92774.44250670
  entropy T*S    EENTRO =         0.00000000
  eigenvalues    EBANDS =        13.63697632
  atomic energy  EATOM  =       669.81418755
  Solvation  Ediel_sol  =         0.00000000
  ---------------------------------------------------
  free energy    TOTEN  =        -3.80382538 eV

  energy without entropy =       -3.80382538  energy(sigma->0) =       -3.80382538


--------------------------------------------------------------------------------------------------------




--------------------------------------- Iteration      1(   2)  ---------------------------------------


    POTLOK:  cpu time    0.1977: real time    0.2983
    SETDIJ:  cpu time    0.2703: real time    0.2870
     EDDAV:  cpu time   21.6799: real time   22.5578
 BZINTS: Fermi energy:  5.507148; 18.000000 electrons
         Band energy:   2.139731;  BLOECHL correction:  0.000000
       DOS:  cpu time    0.0325: real time    0.0326
    CHARGE:  cpu time    1.4622: real time    1.4741
    MIXING:  cpu time    0.0040: real time    0.0041
    --------------------------------------------
      LOOP:  cpu time   23.6467: real time   24.6539

 eigenvalue-minimisations  :  8318
 total energy-change (2. order) :-0.5561743E+01  (-0.7422803E+01)
 number of electron      17.9999999 magnetization 
 augmentation part       -3.3973685 magnetization 

 Broyden mixing:
  rms(total) = 0.21296E+02    rms(broyden)= 0.21296E+02
  rms(prec ) = 0.21297E+02
  weight for this iteration     100.00

 eigenvalues of (default mixing * dielectric matrix)
  average eigenvalue GAMMA=   3.4670
  3.4670

 Free energy of the ion-electron system (eV)
  ---------------------------------------------------
  alpha Z        PSCENC =         2.22054736
  Ewald energy   TEWEN  =      -667.17188197
  -Hartree energ DENC   =       -45.52353932
  -exchange      EXHF   =         0.00000000
  -V(xc)+E(xc)   XCENC  =       -84.69529093
  PAW double counting   =     50580.67631700   -50466.82563987
  entropy T*S    EENTRO =         0.00000000
  eigenvalues    EBANDS =         2.13973138
  atomic energy  EATOM  =       669.81418755
  Solvation  Ediel_sol  =         0.00000000
  ---------------------------------------------------
  free energy    TOTEN  =        -9.36556881 eV

  energy without entropy =       -9.36556881  energy(sigma->0) =       -9.36556881


--------------------------------------------------------------------------------------------------------




--------------------------------------- Iteration      1(   3)  ---------------------------------------


    POTLOK:  cpu time    0.1350: real time    0.1367
    SETDIJ:  cpu time    0.2366: real time    0.2384
     EDDAV:  cpu time   19.9633: real time   20.2639
 BZINTS: Fermi energy:  5.246759; 18.000000 electrons
         Band energy:  -3.443154;  BLOECHL correction:  0.000000
       DOS:  cpu time    0.0385: real time    0.0389
    CHARGE:  cpu time    1.5322: real time    1.5663
    MIXING:  cpu time    0.0039: real time    0.0039
    --------------------------------------------
      LOOP:  cpu time   21.9093: real time   22.2483

 eigenvalue-minimisations  :  8102
 total energy-change (2. order) :-0.2541844E+00  (-0.5534378E+00)
 number of electron      17.9999999 magnetization 
 augmentation part       -3.6931076 magnetization 

 Broyden mixing:
  rms(total) = 0.76884E+01    rms(broyden)= 0.76884E+01
  rms(prec ) = 0.76936E+01
  weight for this iteration     100.00

 eigenvalues of (default mixing * dielectric matrix)
  average eigenvalue GAMMA=   1.7585
  1.0654  2.4516

 Free energy of the ion-electron system (eV)
  ---------------------------------------------------
  alpha Z        PSCENC =         2.22054736
  Ewald energy   TEWEN  =      -667.17188197
  -Hartree energ DENC   =       -43.38239533
  -exchange      EXHF   =         0.00000000
  -V(xc)+E(xc)   XCENC  =       -83.72862205
[...]
     10       6.4260      0.00000
     11       7.5222      0.00000
     12       8.5772      0.00000
     13       9.8348      0.00000
     14      10.8471      0.00000

 k-point   227 :       0.2857   -0.4286   -0.2000
  band No.  band energies     occupation 
      1      -6.9451      2.00000
      2      -5.5599      2.00000
      3      -4.2800      2.00000
      4       0.6174      2.00000
      5       1.3197      2.00000
      6       2.1715      2.00000
      7       3.1161      2.00000
      8       4.3408      2.00000
      9       4.7936      2.00000
     10       6.5211      0.00000
     11       7.2316      0.00000
     12       7.7631      0.00000
     13       9.4867      0.00000
     14      11.2109      0.00000

 k-point   228 :       0.4286   -0.4286   -0.2000
  band No.  band energies     occupation 
      1      -6.8265      2.00000
      2      -5.6220      2.00000
      3      -4.3143      2.00000
      4       0.5248      2.00000
      5       1.1717      2.00000
      6       2.0293      2.00000
      7       3.7723      2.00000
      8       4.1973      2.00000
      9       4.3156      2.00000
     10       6.5439      0.00000
     11       7.0391      0.00000
     12       7.9096      0.00000
     13       8.9827      0.00000
     14      12.5062      0.00000

 k-point   229 :      -0.4286   -0.4286   -0.2000
  band No.  band energies     occupation 
      1      -6.7097      2.00000
      2      -5.5339      2.00000
      3      -4.5395      2.00000
      4       0.7028      2.00000
      5       1.0712      2.00000
      6       2.1295      2.00000
      7       2.9833      2.00000
      8       3.4791      2.00000
      9       4.8590      2.00000
     10       6.4903      0.00000
     11       7.7540      0.00000
     12       8.3464      0.00000
     13       9.5270      0.00000
     14      12.0731      0.00000

 k-point   230 :      -0.2857   -0.4286   -0.2000
  band No.  band energies     occupation 
      1      -6.6608      2.00000
      2      -5.4759      2.00000
      3      -4.6414      2.00000
      4       0.6828      2.00000
      5       1.1754      2.00000
      6       1.9102      2.00000
      7       2.7266      2.00000
      8       3.7737      2.00000
      9       4.3691      2.00000
     10       7.3034      0.00000
     11       7.7388      0.00000
     12       8.3737      0.00000
     13      10.3988      0.00000
     14      10.8342      0.00000

 k-point   231 :      -0.1429   -0.4286   -0.2000
  band No.  band energies     occupation 
      1      -6.7097      2.00000
      2      -5.5339      2.00000
      3      -4.5395      2.00000
      4       0.7028      2.00000
      5       1.0712      2.00000
      6       2.1295      2.00000
      7       2.9833      2.00000
      8       3.4791      2.00000
      9       4.8590      2.00000
     10       6.4903      0.00000
     11       7.7540      0.00000
     12       8.3464      0.00000
     13       9.5270      0.00000
     14      12.0731      0.00000

 k-point   232 :       0.0000   -0.2857   -0.2000
  band No.  band energies     occupation 
      1      -7.2424      2.00000
      2      -5.4936      2.00000
      3      -4.1833      2.00000
      4       1.3780      2.00000
      5       1.8486      2.00000
      6       2.4687      2.00000
      7       2.8426      2.00000
      8       3.9741      2.00000
      9       4.3619      2.00000
     10       6.7833      0.00000
     11       7.3185      0.00000
     12       8.2437      0.00000
     13       9.9659      0.00000
     14      10.9489      0.00000

 k-point   233 :       0.1429   -0.2857   -0.2000
  band No.  band energies     occupation 
      1      -7.3412      2.00000
      2      -5.5795      2.00000
      3      -3.9783      2.00000
      4       1.2783      2.00000
      5       1.6459      2.00000
      6       2.5761      2.00000
      7       3.5161      2.00000
      8       4.1669      2.00000
      9       5.0501      2.00000
     10       6.3718      0.00000
     11       6.9493      0.00000
     12       7.4222      0.00000
     13       9.7841      0.00000
     14      10.6890      0.00000

 k-point   234 :       0.2857   -0.2857   -0.2000
  band No.  band energies     occupation 
      1      -7.2257      2.00000
      2      -5.6135      2.00000
      3      -3.9810      2.00000
      4       0.8425      2.00000
      5       1.4185      2.00000
      6       2.2650      2.00000
      7       4.3479      2.00000
      8       4.4828      2.00000
      9       5.0618      2.00000
     10       6.1911      0.00000
     11       6.6595      0.00000
     12       6.9026      0.00000
     13       9.0747      0.00000
     14      11.7881      0.00000

 k-point   235 :       0.4286   -0.2857   -0.2000
  band No.  band energies     occupation 
      1      -6.9451      2.00000
      2      -5.5599      2.00000
      3      -4.2800      2.00000
      4       0.6174      2.00000
      5       1.3197      2.00000
      6       2.1715      2.00000
      7       3.1161      2.00000
      8       4.3408      2.00000
      9       4.7936      2.00000
     10       6.5211      0.00000
     11       7.2316      0.00000
     12       7.7631      0.00000
     13       9.4867      0.00000
     14      11.2109      0.00000

 k-point   236 :      -0.4286   -0.2857   -0.2000
  band No.  band energies     occupation 
      1      -6.6608      2.00000
      2      -5.4759      2.00000
      3      -4.6414      2.00000
      4       0.6828      2.00000
      5       1.1754      2.00000
      6       1.9102      2.00000
      7       2.7266      2.00000
      8       3.7737      2.00000
      9       4.3691      2.00000
     10       7.3034      0.00000
     11       7.7388      0.00000
     12       8.3737      0.00000
     13      10.3988      0.00000
     14      10.8342      0.00000

 k-point   237 :      -0.2857   -0.2857   -0.2000
  band No.  band energies     occupation 
      1      -6.6608      2.00000
      2      -5.4759      2.00000
      3      -4.6414      2.00000
      4       0.6828      2.00000
      5       1.1754      2.00000
      6       1.9102      2.00000
      7       2.7266      2.00000
      8       3.7737      2.00000
      9       4.3691      2.00000
     10       7.3034      0.00000
     11       7.7388      0.00000
     12       8.3737      0.00000
     13      10.3988      0.00000
     14      10.8342      0.00000

 k-point   238 :      -0.1429   -0.2857   -0.2000
  band No.  band energies     occupation 
      1      -6.9614      2.00000
      2      -5.4535      2.00000
      3      -4.4269      2.00000
      4       0.9589      2.00000
      5       1.4047      2.00000
      6       2.3320      2.00000
      7       2.6810      2.00000
      8       3.5881      2.00000
      9       5.0150      2.00000
     10       6.4260      0.00000
     11       7.5222      0.00000
     12       8.5772      0.00000
     13       9.8348      0.00000
     14      10.8471      0.00000

 k-point   239 :       0.0000   -0.1429   -0.2000
  band No.  band energies     occupation 
      1      -7.5786      2.00000
      2      -5.6574      2.00000
      3      -3.7605      2.00000
      4       1.8027      2.00000
      5       2.4248      2.00000
      6       2.7857      2.00000
      7       3.8841      2.00000
      8       4.1626      2.00000
      9       4.3713      2.00000
     10       6.6230      0.00000
     11       6.7200      0.00000
     12       7.1054      0.00000
     13      10.2039      0.00000
     14      10.8429      0.00000

 k-point   240 :       0.1429   -0.1429   -0.2000
  band No.  band energies     occupation 
      1      -7.5764      2.00000
      2      -5.6745      2.00000
      3      -3.7231      2.00000
      4       1.8696      2.00000
      5       1.9306      2.00000
      6       2.6941      2.00000
      7       4.4354      2.00000
      8       4.5930      2.00000
      9       4.7533      2.00000
     10       6.1642      0.00000
     11       6.2135      0.00000
     12       6.8975      0.00000
     13       9.6847      0.00000
     14      11.2959      0.00000

 k-point   241 :       0.2857   -0.1429   -0.2000
  band No.  band energies     occupation 
      1      -7.3412      2.00000
      2      -5.5795      2.00000
      3      -3.9783      2.00000
      4       1.2783      2.00000
      5       1.6459      2.00000
      6       2.5761      2.00000
      7       3.5161      2.00000
      8       4.1669      2.00000
      9       5.0501      2.00000
     10       6.3718      0.00000
     11       6.9493      0.00000
     12       7.4222      0.00000
     13       9.7841      0.00000
     14      10.6890      0.00000

 k-point   242 :       0.4286   -0.1429   -0.2000
  band No.  band energies     occupation 
      1      -6.9614      2.00000
      2      -5.4535      2.00000
      3      -4.4269      2.00000
      4       0.9589      2.00000
      5       1.4047      2.00000
      6       2.3320      2.00000
      7       2.6810      2.00000
      8       3.5881      2.00000
      9       5.0150      2.00000
     10       6.4260      0.00000
     11       7.5222      0.00000
     12       8.5772      0.00000
     13       9.8348      0.00000
     14      10.8471      0.00000

 k-point   243 :      -0.4286   -0.1429   -0.2000
  band No.  band energies     occupation 
      1      -6.7097      2.00000
      2      -5.5339      2.00000
      3      -4.5395      2.00000
      4       0.7028      2.00000
      5       1.0712      2.00000
      6       2.1295      2.00000
      7       2.9833      2.00000
      8       3.4791      2.00000
      9       4.8590      2.00000
     10       6.4903      0.00000
     11       7.7540      0.00000
     12       8.3464      0.00000
     13       9.5270      0.00000
     14      12.0731      0.00000

 k-point   244 :      -0.2857   -0.1429   -0.2000
  band No.  band energies     occupation 
      1      -6.9451      2.00000
      2      -5.5599      2.00000
      3      -4.2800      2.00000
      4       0.6174      2.00000
      5       1.3197      2.00000
      6       2.1715      2.00000
      7       3.1161      2.00000
      8       4.3408      2.00000
      9       4.7936      2.00000
     10       6.5211      0.00000
     11       7.2316      0.00000
     12       7.7631      0.00000
     13       9.4867      0.00000
     14      11.2109      0.00000

 k-point   245 :      -0.1429   -0.1429   -0.2000
  band No.  band energies     occupation 
      1      -7.3412      2.00000
      2      -5.5795      2.00000
      3      -3.9783      2.00000
      4       1.2783      2.00000
      5       1.6459      2.00000
      6       2.5761      2.00000
      7       3.5161      2.00000
      8       4.1669      2.00000
      9       5.0501      2.00000
     10       6.3718      0.00000
     11       6.9493      0.00000
     12       7.4222      0.00000
     13       9.7841      0.00000
     14      10.6890      0.00000


--------------------------------------------------------------------------------------------------------


 soft charge-density along one line, spin component           1
         0         1         2         3         4         5         6         7         8         9
 total charge-density along one line

 pseudopotential strength for first ion, spin component:           1
 51.796  56.355   0.046  -0.000  -0.026   0.066  -0.000  -0.038
 56.355  61.319   0.050  -0.000  -0.029   0.072  -0.000  -0.042
  0.046   0.050  12.758  -0.007  -0.009  18.390  -0.010  -0.014
 -0.000  -0.000  -0.007  12.763  -0.012  -0.010  18.398  -0.017
 -0.026  -0.029  -0.009  -0.012  12.747  -0.014  -0.017  18.375
  0.066   0.072  18.390  -0.010  -0.014  26.518  -0.014  -0.020
 -0.000  -0.000  -0.010  18.398  -0.017  -0.014  26.529  -0.024
 -0.038  -0.042  -0.014  -0.017  18.375  -0.020  -0.024  26.496
 -0.014  -0.016  -0.005   0.001   0.008  -0.007   0.001   0.012
 -0.010  -0.011   0.001   0.007   0.001   0.002   0.010   0.001
  0.009   0.010  -0.006  -0.000   0.003  -0.008  -0.000   0.005
 -0.017  -0.019   0.001  -0.004  -0.001   0.001  -0.006  -0.002
 -0.008  -0.009  -0.008  -0.001  -0.005  -0.012  -0.002  -0.007
 total augmentation occupancy for first ion, spin component:           1
 12.909  -9.371  -1.892   0.000   1.092   0.481  -0.000  -0.278   0.103   0.082  -0.092   0.142   0.059
 -9.371   8.052   1.603  -0.000  -0.925  -0.422   0.000   0.244  -0.092  -0.074   0.083  -0.129  -0.053
 -1.892   1.603   2.669  -0.112  -0.105  -0.651   0.098   0.109  -0.027  -0.045   0.013  -0.029  -0.047
  0.000  -0.000  -0.112   2.840  -0.194   0.098  -0.773   0.170  -0.024   0.106  -0.000  -0.061   0.042
  1.092  -0.925  -0.105  -0.194   2.548   0.109   0.170  -0.525   0.047  -0.024  -0.008   0.045  -0.028
  0.481  -0.422  -0.651   0.098   0.109   0.226  -0.037  -0.036   0.007   0.015  -0.003   0.007   0.012
 -0.000   0.000   0.098  -0.773   0.170  -0.037   0.277  -0.063   0.009  -0.032   0.000   0.018  -0.016
 -0.278   0.244   0.109   0.170  -0.525  -0.036  -0.063   0.185  -0.012   0.010   0.002  -0.015   0.007
  0.103  -0.092  -0.027  -0.024   0.047   0.007   0.009  -0.012   0.009  -0.003   0.001   0.005   0.000
  0.082  -0.074  -0.045   0.106  -0.024   0.015  -0.032   0.010  -0.003   0.022  -0.002  -0.005   0.008
 -0.092   0.083   0.013  -0.000  -0.008  -0.003   0.000   0.002   0.001  -0.002   0.007  -0.003   0.000
  0.142  -0.129  -0.029  -0.061   0.045   0.007   0.018  -0.015   0.005  -0.005  -0.003   0.016  -0.003
  0.059  -0.053  -0.047   0.042  -0.028   0.012  -0.016   0.007   0.000   0.008   0.000  -0.003   0.009


------------------------ aborting loop because EDIFF is reached ----------------------------------------





 total charge     

# of ion       s       p       d       tot
------------------------------------------
    1        1.433   1.806   0.039   3.278
    2        1.433   1.806   0.039   3.278
    3        1.433   1.806   0.039   3.278
--------------------------------------------------
tot          4.299   5.417   0.118   9.833

    CHARGE:  cpu time    1.6734: real time    1.7490
    FORLOC:  cpu time    0.0085: real time    0.0092
    FORNL :  cpu time    2.4054: real time    2.7380
    STRESS:  cpu time    7.4604: real time    7.6027
    FORCOR:  cpu time    0.1354: real time    0.1381
    FORHAR:  cpu time    0.0308: real time    0.0320
    MIXING:  cpu time    0.0065: real time    0.0065
    OFIELD:  cpu time    0.0000: real time    0.0000

  FORCE on cell =-STRESS in cart. coord.  units (eV):
  Direction    XX          YY          ZZ          XY          YZ          ZX
  --------------------------------------------------------------------------------------
  Alpha Z     2.22055     2.22055     2.22055
  Ewald    -234.97646  -234.97646  -197.21971     0.00000     0.00000    -0.00000
  Hartree    11.88311    11.88311    21.85765    -0.00000     0.00000    -0.00000
  E(xc)     -70.22052   -70.22052   -69.75973    -0.00000     0.00000    -0.00000
  Local    -114.78792  -114.78789  -153.64220     0.00000     0.00000    -0.00000
  n-local   331.93771   331.93771   327.77853     0.00000    -0.00000     0.00000
  augment   -81.04611   -81.04614   -78.87714    -0.00000     0.00000    -0.00000
  Kinetic   154.98889   154.98889   147.64317     0.00000     0.00000     0.00000
  Fock        0.00000     0.00000     0.00000     0.00000     0.00000     0.00000
  -------------------------------------------------------------------------------------
  Total      -0.00076    -0.00076     0.00112     0.00000     0.00000     0.00000
  in kB      -0.01152    -0.01152     0.01706     0.00000     0.00001     0.00001
  external pressure =       -0.00 kB  Pullay stress =        0.00 kB


 VOLUME and BASIS-vectors are now :
 -----------------------------------------------------------------------------
  energy-cutoff  :      500.00
  volume of cell :      105.27
      direct lattice vectors                 reciprocal lattice vectors
     2.259320305 -3.913257559 -0.000000000     0.221305496 -0.127770788  0.000000000
     2.259320305  3.913257559  0.000000000     0.221305496  0.127770788  0.000000000
    -0.000000000  0.000000000  5.953196681     0.000000000 -0.000000000  0.167976980

  length of vectors
     4.518640610  4.518640610  5.953196681     0.255541575  0.255541575  0.167976980


 FORCES acting on ions
    electron-ion (+dipol)            ewald-force                    non-local-force                 convergence-correction
 -----------------------------------------------------------------------------------------------
   -.604E+01 0.105E+02 0.129E-06   0.863E+01 -.149E+02 -.213E-09   -.258E+01 0.447E+01 0.465E-06   -.693E-06 0.119E-05 -.817E-06
   -.604E+01 -.105E+02 0.491E-06   0.863E+01 0.149E+02 0.213E-09   -.258E+01 -.447E+01 -.650E-06   -.895E-06 0.231E-06 0.331E-06
   0.121E+02 0.149E-05 -.223E-05   -.173E+02 0.837E-15 0.711E-14   0.517E+01 -.144E-05 0.126E-05   0.133E-05 -.345E-06 0.105E-05
 -----------------------------------------------------------------------------------------------
   0.131E-05 0.230E-06 -.161E-05   -.355E-14 0.837E-15 0.000E+00   -.177E-05 -.174E-05 0.108E-05   -.260E-06 0.108E-05 0.564E-06


 POSITION                                       TOTAL-FORCE (eV/Angst)
 -----------------------------------------------------------------------------------
      0.60691     -1.05119      0.99220        -0.000058      0.000101     -0.000000
      0.60691      1.05119      4.96100        -0.000058     -0.000100      0.000000
      3.30483      0.00000      2.97660         0.000116     -0.000000      0.000000
 -----------------------------------------------------------------------------------
    total drift:                               -0.000001     -0.000000      0.000000


--------------------------------------------------------------------------------------------------------



  FREE ENERGIE OF THE ION-ELECTRON SYSTEM (eV)
  ---------------------------------------------------
  free  energy   TOTEN  =        -9.43117681 eV

  energy  without entropy=       -9.43117681  energy(sigma->0) =       -9.43117681



--------------------------------------------------------------------------------------------------------


    POTLOK:  cpu time    0.3697: real time    0.3737


--------------------------------------------------------------------------------------------------------


 writing wavefunctions
     LOOP+:  cpu time  348.7413: real time  365.9616
    4ORBIT:  cpu time    0.0000: real time    0.0000



 total charge     

# of ion       s       p       d       tot
------------------------------------------
    1        1.433   1.806   0.039   3.278
    2        1.433   1.806   0.039   3.278
    3        1.433   1.806   0.039   3.278
--------------------------------------------------
tot          4.299   5.417   0.118   9.833

 BZINTS: Fermi energy:  5.388046; 18.000000 electrons
         Band energy:   0.099549;  BLOECHL correction:  0.000000

 total amount of memory used by VASP MPI-rank0   197103. kBytes
=======================================================================

   base      :      30000. kBytes
   nonl-proj :      68721. kBytes
   fftplans  :       8774. kBytes
   grid      :      14618. kBytes
   one-center:         24. kBytes
   wavefun   :      74966. kBytes

  
  
 General timing and accounting informations for this job:
 ========================================================
  
                  Total CPU time used (sec):      354.186
                            User time (sec):      344.957
                          System time (sec):        9.229
                         Elapsed time (sec):      371.909
  
                   Maximum memory used (kb):   231256064.
                   Average memory used (kb):           0.
  
                          Minor page faults:       184101
                          Major page faults:          130
                 Voluntary context switches:         1502
