PROCAR lm decomposed
# of k-points:  245         # of bands:   14         # of ions:    3

 k-point     1 :    0.00000000 0.00000000 0.00000000     weight = 0.00408163

band     1 # energy   -7.84370597 # occ.  2.00000000

ion      s     py     pz     px    dxy    dyz    dz2    dxz  x2-y2    tot
    1  0.201  0.001  0.000  0.000  0.000  0.000  0.000  0.000  0.000  0.202
    2  0.201  0.001  0.000  0.000  0.000  0.000  0.000  0.000  0.000  0.202
    3  0.201  0.000  0.000  0.002  0.000  0.000  0.000  0.000  0.000  0.202
tot    0.602  0.002  0.000  0.002  0.000  0.000  0.000  0.000  0.000  0.607

band     2 # energy   -4.67683706 # occ.  2.00000000

ion      s     py     pz     px    dxy    dyz    dz2    dxz  x2-y2    tot
    1  0.356  0.000  0.005  0.000  0.000  0.000  0.000  0.000  0.000  0.362
    2  0.002  0.000  0.025  0.001  0.000  0.000  0.000  0.000  0.000  0.029
    3  0.304  0.000  0.008  0.000  0.000  0.000  0.000  0.000  0.000  0.313
tot    0.663  0.001  0.037  0.001  0.000  0.001  0.000  0.000  0.000  0.703

band     3 # energy   -4.67683647 # occ.  2.00000000

ion      s     py     pz     px    dxy    dyz    dz2    dxz  x2-y2    tot
    1  0.086  0.000  0.020  0.001  0.000  0.000  0.000  0.000  0.000  0.107
    2  0.440  0.000  0.000  0.000  0.000  0.000  0.000  0.000  0.000  0.440
    3  0.137  0.001  0.017  0.000  0.000  0.000  0.000  0.000  0.000  0.156
tot    0.663  0.001  0.037  0.001  0.000  0.000  0.000  0.001  0.000  0.703

band     4 # energy    2.55452585 # occ.  2.00000000

ion      s     py     pz     px    dxy    dyz    dz2    dxz  x2-y2    tot
    1  0.000  0.122  0.000  0.041  0.001  0.000  0.000  0.001  0.000  0.166
    2  0.000  0.122  0.000  0.041  0.001  0.000  0.000  0.001  0.000  0.166
    3  0.000  0.000  0.000  0.163  0.000  0.001  0.000  0.000  0.002  0.166
tot    0.000  0.244  0.000  0.244  0.002  0.001  0.001  0.001  0.002  0.497

band     5 # energy    2.81801753 # occ.  2.00000000

ion      s     py     pz     px    dxy    dyz    dz2    dxz  x2-y2    tot
    1  0.052  0.049  0.013  0.043  0.000  0.000  0.001  0.000  0.000  0.159
    2  0.030  0.012  0.076  0.066  0.000  0.001  0.000  0.001  0.000  0.187
    3  0.003  0.056  0.153  0.005  0.001  0.000  0.000  0.002  0.000  0.220
tot    0.085  0.118  0.242  0.115  0.001  0.001  0.001  0.004  0.000  0.566

band     6 # energy    2.81801755 # occ.  2.00000000

ion      s     py     pz     px    dxy    dyz    dz2    dxz  x2-y2    tot
    1  0.005  0.037  0.148  0.025  0.000  0.002  0.000  0.000  0.000  0.218
    2  0.027  0.074  0.085  0.002  0.000  0.001  0.000  0.000  0.000  0.191
    3  0.054  0.003  0.009  0.091  0.000  0.000  0.001  0.000  0.000  0.157
tot    0.085  0.115  0.242  0.118  0.000  0.004  0.001  0.001  0.001  0.566

band     7 # energy    3.91539981 # occ.  2.00000000

ion      s     py     pz     px    dxy    dyz    dz2    dxz  x2-y2    tot
    1  0.004  0.023  0.066  0.134  0.000  0.000  0.001  0.000  0.002  0.230
    2  0.021  0.012  0.000  0.001  0.002  0.000  0.003  0.000  0.001  0.040
    3  0.006  0.136  0.058  0.004  0.001  0.000  0.001  0.000  0.001  0.207
tot    0.032  0.171  0.125  0.139  0.003  0.000  0.004  0.001  0.003  0.478

band     8 # energy    3.91540009 # occ.  2.00000000

ion      s     py     pz     px    dxy    dyz    dz2    dxz  x2-y2    tot
    1  0.017  0.035  0.017  0.015  0.003  0.000  0.002  0.000  0.000  0.088
    2  0.000  0.046  0.083  0.147  0.000  0.000  0.000  0.000  0.001  0.278
    3  0.015  0.058  0.025  0.009  0.000  0.000  0.002  0.000  0.002  0.111
tot    0.032  0.139  0.125  0.171  0.003  0.001  0.004  0.000  0.003  0.478

band     9 # energy    4.72610269 # occ.  2.00000000

ion      s     py     pz     px    dxy    dyz    dz2    dxz  x2-y2    tot
    1  0.000  0.040  0.009  0.119  0.000  0.001  0.000  0.000  0.001  0.171
    2  0.000  0.040  0.009  0.119  0.000  0.001  0.000  0.000  0.001  0.171
    3  0.000  0.159  0.009  0.000  0.002  0.000  0.000  0.001  0.000  0.171
tot    0.000  0.239  0.027  0.239  0.002  0.001  0.000  0.001  0.002  0.512

band    10 # energy    6.52496709 # occ.  0.00000000

ion      s     py     pz     px    dxy    dyz    dz2    dxz  x2-y2    tot
    1  0.014  0.138  0.002  0.093  0.000  0.000  0.001  0.003  0.000  0.251
    2  0.001  0.059  0.026  0.033  0.000  0.004  0.000  0.000  0.000  0.124
    3  0.008  0.040  0.013  0.126  0.000  0.001  0.000  0.002  0.000  0.191
tot    0.023  0.238  0.042  0.252  0.000  0.005  0.001  0.005  0.000  0.566

band    11 # energy    6.52496723 # occ.  0.00000000

ion      s     py     pz     px    dxy    dyz    dz2    dxz  x2-y2    tot
    1  0.001  0.065  0.026  0.030  0.000  0.004  0.000  0.000  0.000  0.126
    2  0.014  0.144  0.002  0.090  0.000  0.000  0.001  0.003  0.000  0.254
    3  0.007  0.043  0.014  0.118  0.000  0.001  0.000  0.002  0.000  0.186
tot    0.023  0.252  0.042  0.238  0.000  0.005  0.001  0.005  0.000  0.566

band    12 # energy    7.07886929 # occ.  0.00000000

ion      s     py     pz     px    dxy    dyz    dz2    dxz  x2-y2    tot
    1  0.000  0.001  0.173  0.003  0.001  0.001  0.000  0.000  0.004  0.184
    2  0.000  0.001  0.173  0.003  0.001  0.001  0.000  0.000  0.004  0.184
    3  0.000  0.004  0.173  0.000  0.005  0.000  0.000  0.002  0.000  0.184
tot    0.000  0.006  0.519  0.006  0.008  0.003  0.000  0.003  0.008  0.552

band    13 # energy   10.57714630 # occ.  0.00000000

ion      s     py     pz     px    dxy    dyz    dz2    dxz  x2-y2    tot
    1  0.000  0.000  0.018  0.002  0.001  0.010  0.040  0.000  0.010  0.080
    2  0.000  0.001  0.044  0.002  0.002  0.013  0.002  0.003  0.012  0.079
    3  0.000  0.000  0.006  0.001  0.002  0.006  0.057  0.002  0.007  0.081
tot    0.000  0.001  0.068  0.005  0.005  0.029  0.098  0.005  0.030  0.240

band    14 # energy   10.57714681 # occ.  0.00000000

ion      s     py     pz     px    dxy    dyz    dz2    dxz  x2-y2    tot
    1  0.000  0.001  0.027  0.001  0.009  0.004  0.026  0.009  0.003  0.080
    2  0.000  0.001  0.001  0.000  0.008  0.001  0.064  0.006  0.001  0.081
    3  0.000  0.003  0.039  0.000  0.013  0.001  0.009  0.014  0.001  0.079
tot    0.000  0.005  0.068  0.001  0.030  0.005  0.098  0.029  0.005  0.240


 k-point     2 :    0.14285714 0.00000000 0.00000000     weight = 0.00408163

band     1 # energy   -7.71448082 # occ.  2.00000000

ion      s     py     pz     px    dxy    dyz    dz2    dxz  x2-y2    tot
    1  0.200  0.002  0.000  0.001  0.000  0.000  0.000  0.000  0.000  0.203
    2  0.205  0.001  0.000  0.001  0.000  0.000  0.000  0.000  0.000  0.207
    3  0.200  0.000  0.000  0.002  0.000  0.000  0.000  0.000  0.000  0.203
tot    0.605  0.003  0.000  0.004  0.000  0.000  0.000  0.000  0.000  0.613

band     2 # energy   -4.72722444 # occ.  2.00000000

ion      s     py     pz     px    dxy    dyz    dz2    dxz  x2-y2    tot
    1  0.326  0.000  0.005  0.000  0.000  0.000  0.000  0.000  0.000  0.333
    2  0.017  0.001  0.021  0.002  0.000  0.000  0.000  0.000  0.000  0.041
    3  0.326  0.000  0.005  0.000  0.000  0.000  0.000  0.000  0.000  0.333
tot    0.669  0.001  0.032  0.002  0.000  0.001  0.000  0.000  0.000  0.706

band     3 # energy   -4.64797233 # occ.  2.00000000

ion      s     py     pz     px    dxy    dyz    dz2    dxz  x2-y2    tot
    1  0.122  0.000  0.016  0.001  0.000  0.000  0.000  0.000  0.000  0.140
    2  0.428  0.000  0.001  0.000  0.000  0.000  0.000  0.000  0.000  0.429
    3  0.122  0.001  0.016  0.000  0.000  0.000  0.000  0.001  0.000  0.140
tot    0.673  0.001  0.033  0.001  0.000  0.000  0.000  0.001  0.000  0.709

band     4 # energy    1.73942597 # occ.  2.00000000

ion      s     py     pz     px    dxy    dyz    dz2    dxz  x2-y2    tot
    1  0.008  0.055  0.034  0.076  0.001  0.000  0.001  0.001  0.000  0.175
    2  0.004  0.013  0.071  0.018  0.001  0.000  0.000  0.000  0.000  0.107
    3  0.008  0.015  0.034  0.116  0.000  0.000  0.001  0.000  0.001  0.175
tot    0.020  0.082  0.139  0.210  0.001  0.001  0.003  0.001  0.001  0.456

band     5 # energy    2.27694372 # occ.  2.00000000

ion      s     py     pz     px    dxy    dyz    dz2    dxz  x2-y2    tot
    1  0.017  0.028  0.099  0.014  0.000  0.001  0.000  0.000  0.000  0.160
    2  0.030  0.062  0.038  0.067  0.000  0.001  0.001  0.001  0.000  0.200
    3  0.017  0.005  0.099  0.037  0.000  0.000  0.000  0.001  0.000  0.160
tot    0.065  0.095  0.236  0.118  0.001  0.002  0.002  0.001  0.000  0.519

band     6 # energy    2.58050083 # occ.  2.00000000

ion      s     py     pz     px    dxy    dyz    dz2    dxz  x2-y2    tot
    1  0.010  0.098  0.013  0.021  0.000  0.001  0.000  0.000  0.001  0.144
    2  0.003  0.128  0.026  0.058  0.000  0.001  0.000  0.000  0.001  0.217
    3  0.010  0.077  0.013  0.041  0.000  0.000  0.000  0.001  0.001  0.144
tot    0.024  0.302  0.052  0.120  0.001  0.001  0.001  0.001  0.002  0.505

band     7 # energy    4.25176762 # occ.  2.00000000

ion      s     py     pz     px    dxy    dyz    dz2    dxz  x2-y2    tot
    1  0.016  0.032  0.067  0.094  0.000  0.001  0.000  0.000  0.001  0.211
    2  0.019  0.011  0.037  0.031  0.002  0.001  0.002  0.000  0.001  0.104
    3  0.016  0.117  0.067  0.009  0.001  0.000  0.000  0.000  0.000  0.211
tot    0.052  0.159  0.171  0.134  0.004  0.002  0.003  0.001  0.003  0.526

band     8 # energy    4.57026817 # occ.  2.00000000

ion      s     py     pz     px    dxy    dyz    dz2    dxz  x2-y2    tot
    1  0.011  0.054  0.021  0.119  0.001  0.000  0.001  0.000  0.000  0.207
    2  0.000  0.049  0.027  0.033  0.001  0.001  0.000  0.000  0.002  0.113
    3  0.011  0.148  0.021  0.024  0.000  0.001  0.001  0.000  0.002  0.207
tot    0.022  0.250  0.069  0.176  0.002  0.002  0.002  0.001  0.004  0.527

band     9 # energy    4.88615472 # occ.  2.00000000

ion      s     py     pz     px    dxy    dyz    dz2    dxz  x2-y2    tot
    1  0.005  0.047  0.023  0.030  0.001  0.002  0.000  0.002  0.000  0.110
    2  0.000  0.066  0.061  0.188  0.000  0.001  0.000  0.000  0.000  0.315
    3  0.005  0.036  0.023  0.040  0.001  0.000  0.000  0.003  0.000  0.110
tot    0.010  0.149  0.107  0.258  0.002  0.003  0.001  0.006  0.001  0.536

band    10 # energy    6.25679085 # occ.  0.00000000

ion      s     py     pz     px    dxy    dyz    dz2    dxz  x2-y2    tot
    1  0.021  0.072  0.017  0.109  0.000  0.000  0.000  0.003  0.000  0.223
    2  0.016  0.005  0.066  0.002  0.000  0.003  0.000  0.002  0.000  0.095
    3  0.021  0.024  0.017  0.157  0.000  0.001  0.000  0.002  0.000  0.223
tot    0.058  0.101  0.100  0.268  0.001  0.005  0.001  0.008  0.000  0.541

band    11 # energy    6.44521428 # occ.  0.00000000

ion      s     py     pz     px    dxy    dyz    dz2    dxz  x2-y2    tot
    1  0.004  0.101  0.032  0.017  0.001  0.004  0.000  0.001  0.000  0.161
    2  0.022  0.141  0.006  0.051  0.000  0.001  0.001  0.002  0.001  0.225
    3  0.004  0.061  0.032  0.057  0.001  0.002  0.000  0.003  0.000  0.161
tot    0.030  0.304  0.071  0.125  0.002  0.007  0.002  0.005  0.002  0.547

band    12 # energy    6.94831804 # occ.  0.00000000

ion      s     py     pz     px    dxy    dyz    dz2    dxz  x2-y2    tot
    1  0.001  0.012  0.147  0.009  0.003  0.002  0.000  0.001  0.003  0.176
    2  0.000  0.021  0.121  0.032  0.003  0.003  0.000  0.002  0.003  0.185
    3  0.001  0.008  0.147  0.012  0.005  0.001  0.000  0.002  0.001  0.176
tot    0.002  0.042  0.414  0.053  0.010  0.006  0.000  0.005  0.007  0.538

band    13 # energy   10.14540531 # occ.  0.00000000

ion      s     py     pz     px    dxy    dyz    dz2    dxz  x2-y2    tot
    1  0.000  0.003  0.012  0.006  0.015  0.002  0.019  0.004  0.006  0.066
    2  0.000  0.009  0.010  0.007  0.006  0.003  0.027  0.007  0.004  0.072
    3  0.000  0.009  0.012  0.000  0.016  0.003  0.019  0.003  0.005  0.066
tot    0.000  0.021  0.034  0.013  0.037  0.007  0.065  0.013  0.015  0.204

band    14 # energy   10.54290684 # occ.  0.00000000

ion      s     py     pz     px    dxy    dyz    dz2    dxz  x2-y2    tot
    1  0.005  0.000  0.010  0.003  0.001  0.000  0.032  0.008  0.008  0.069
    2  0.004  0.003  0.025  0.009  0.008  0.002  0.020  0.002  0.005  0.078
    3  0.005  0.001  0.010  0.002  0.009  0.006  0.032  0.003  0.000  0.069
tot    0.015  0.005  0.045  0.014  0.019  0.008  0.085  0.013  0.014  0.217


 k-point     3 :    0.28571429 0.00000000 0.00000000     weight = 0.00408163

band     1 # energy   -7.36040640 # occ.  2.00000000

ion      s     py     pz     px    dxy    dyz    dz2    dxz  x2-y2    tot
    1  0.197  0.003  0.000  0.002  0.000  0.000  0.000  0.000  0.000  0.202
    2  0.222  0.002  0.000  0.001  0.000  0.000  0.000  0.000  0.000  0.225
    3  0.197  0.000  0.000  0.004  0.000  0.000  0.000  0.000  0.000  0.202
tot    0.616  0.005  0.000  0.007  0.000  0.000  0.000  0.000  0.000  0.629

band     2 # energy   -4.95076318 # occ.  2.00000000

ion      s     py     pz     px    dxy    dyz    dz2    dxz  x2-y2    tot
    1  0.319  0.001  0.003  0.001  0.000  0.000  0.000  0.000  0.000  0.325
    2  0.033  0.002  0.013  0.004  0.000  0.000  0.000  0.000  0.000  0.052
    3  0.319  0.001  0.003  0.001  0.000  0.000  0.000  0.000  0.000  0.325
tot    0.672  0.003  0.019  0.006  0.000  0.001  0.000  0.001  0.000  0.702

band     3 # energy   -4.57503847 # occ.  2.00000000

ion      s     py     pz     px    dxy    dyz    dz2    dxz  x2-y2    tot
    1  0.143  0.000  0.011  0.001  0.000  0.001  0.000  0.000  0.000  0.156
    2  0.411  0.000  0.001  0.000  0.000  0.000  0.000  0.000  0.000  0.412
    3  0.143  0.001  0.011  0.000  0.000  0.000  0.000  0.001  0.000  0.156
tot    0.697  0.001  0.022  0.001  0.000  0.001  0.000  0.001  0.000  0.724

band     4 # energy    1.00323698 # occ.  2.00000000

ion      s     py     pz     px    dxy    dyz    dz2    dxz  x2-y2    tot
    1  0.001  0.037  0.042  0.071  0.000  0.000  0.001  0.000  0.000  0.153
    2  0.001  0.005  0.089  0.016  0.000  0.000  0.000  0.000  0.000  0.112
    3  0.001  0.019  0.042  0.090  0.000  0.000  0.001  0.001  0.000  0.153
tot    0.002  0.061  0.173  0.176  0.000  0.001  0.002  0.001  0.000  0.418

band     5 # energy    1.64792117 # occ.  2.00000000

ion      s     py     pz     px    dxy    dyz    dz2    dxz  x2-y2    tot
    1  0.014  0.023  0.100  0.027  0.000  0.000  0.000  0.000  0.000  0.164
    2  0.013  0.040  0.042  0.054  0.000  0.001  0.001  0.001  0.000  0.152
    3  0.014  0.009  0.100  0.041  0.000  0.000  0.000  0.000  0.000  0.164
tot    0.040  0.071  0.243  0.122  0.000  0.002  0.001  0.002  0.000  0.481

band     6 # energy    2.16062328 # occ.  2.00000000

ion      s     py     pz     px    dxy    dyz    dz2    dxz  x2-y2    tot
    1  0.005  0.100  0.007  0.027  0.000  0.000  0.000  0.000  0.000  0.140
    2  0.002  0.122  0.003  0.058  0.000  0.000  0.001  0.000  0.000  0.186
    3  0.005  0.090  0.007  0.037  0.000  0.000  0.000  0.000  0.001  0.140
tot    0.012  0.311  0.018  0.121  0.000  0.001  0.001  0.001  0.001  0.466

band     7 # energy    3.73271510 # occ.  2.00000000

ion      s     py     pz     px    dxy    dyz    dz2    dxz  x2-y2    tot
    1  0.018  0.042  0.049  0.015  0.001  0.001  0.001  0.003  0.000  0.130
    2  0.002  0.049  0.014  0.146  0.001  0.001  0.000  0.001  0.000  0.213
    3  0.018  0.004  0.049  0.053  0.000  0.001  0.001  0.003  0.000  0.130
tot    0.038  0.094  0.113  0.214  0.002  0.003  0.001  0.007  0.001  0.473

band     8 # energy    4.59328868 # occ.  2.00000000

ion      s     py     pz     px    dxy    dyz    dz2    dxz  x2-y2    tot
    1  0.012  0.028  0.039  0.106  0.000  0.002  0.001  0.000  0.001  0.189
    2  0.018  0.041  0.079  0.015  0.002  0.001  0.001  0.001  0.001  0.159
    3  0.012  0.111  0.039  0.023  0.001  0.000  0.001  0.002  0.000  0.189
tot    0.043  0.180  0.157  0.144  0.004  0.004  0.003  0.002  0.002  0.537

band     9 # energy    4.75612157 # occ.  2.00000000

ion      s     py     pz     px    dxy    dyz    dz2    dxz  x2-y2    tot
    1  0.005  0.063  0.024  0.110  0.001  0.003  0.000  0.000  0.000  0.207
    2  0.000  0.075  0.014  0.027  0.001  0.001  0.000  0.000  0.001  0.120
    3  0.005  0.167  0.024  0.006  0.000  0.001  0.000  0.002  0.001  0.207
tot    0.011  0.306  0.062  0.143  0.002  0.005  0.001  0.003  0.001  0.534

band    10 # energy    6.37709810 # occ.  0.00000000

ion      s     py     pz     px    dxy    dyz    dz2    dxz  x2-y2    tot
    1  0.011  0.100  0.038  0.010  0.002  0.003  0.000  0.001  0.001  0.166
    2  0.019  0.074  0.056  0.031  0.001  0.005  0.001  0.003  0.001  0.192
    3  0.011  0.045  0.038  0.065  0.002  0.002  0.000  0.002  0.001  0.166
tot    0.041  0.219  0.132  0.107  0.005  0.010  0.002  0.005  0.003  0.524

band    11 # energy    6.56245015 # occ.  0.00000000

ion      s     py     pz     px    dxy    dyz    dz2    dxz  x2-y2    tot
    1  0.009  0.062  0.063  0.010  0.002  0.001  0.000  0.002  0.001  0.151
    2  0.024  0.027  0.154  0.012  0.002  0.005  0.000  0.002  0.001  0.225
    3  0.009  0.002  0.063  0.070  0.002  0.003  0.000  0.000  0.001  0.151
tot    0.041  0.091  0.280  0.092  0.006  0.009  0.000  0.004  0.004  0.527

band    12 # energy    7.70263664 # occ.  0.00000000

ion      s     py     pz     px    dxy    dyz    dz2    dxz  x2-y2    tot
    1  0.010  0.028  0.101  0.085  0.003  0.002  0.000  0.002  0.000  0.232
    2  0.007  0.035  0.016  0.098  0.002  0.001  0.000  0.002  0.001  0.162
    3  0.010  0.029  0.101  0.084  0.002  0.001  0.000  0.004  0.001  0.232
tot    0.027  0.092  0.219  0.267  0.007  0.003  0.000  0.008  0.002  0.625

band    13 # energy    9.22449159 # occ.  0.00000000

ion      s     py     pz     px    dxy    dyz    dz2    dxz  x2-y2    tot
    1  0.001  0.002  0.003  0.005  0.015  0.000  0.012  0.009  0.008  0.056
    2  0.000  0.014  0.004  0.007  0.011  0.002  0.016  0.007  0.004  0.065
    3  0.001  0.007  0.003  0.000  0.019  0.008  0.012  0.001  0.004  0.056
tot    0.002  0.024  0.010  0.012  0.045  0.011  0.040  0.018  0.015  0.176

band    14 # energy   11.08295169 # occ.  0.00000000

ion      s     py     pz     px    dxy    dyz    dz2    dxz  x2-y2    tot
    1  0.006  0.006  0.001  0.019  0.005  0.000  0.026  0.007  0.006  0.077
    2  0.002  0.005  0.009  0.014  0.008  0.002  0.018  0.006  0.004  0.069
    3  0.006  0.007  0.001  0.019  0.010  0.005  0.026  0.003  0.001  0.077
tot    0.013  0.018  0.012  0.052  0.023  0.007  0.070  0.016  0.012  0.223


 k-point     4 :    0.42857143 0.00000000 0.00000000     weight = 0.00408163

band     1 # energy   -6.94644388 # occ.  2.00000000

ion      s     py     pz     px    dxy    dyz    dz2    dxz  x2-y2    tot
    1  0.187  0.004  0.000  0.003  0.000  0.000  0.000  0.000  0.000  0.195
    2  0.261  0.002  0.000  0.001  0.000  0.000  0.000  0.000  0.000  0.264
    3  0.187  0.000  0.000  0.007  0.000  0.000  0.000  0.000  0.000  0.195
tot    0.635  0.007  0.000  0.011  0.000  0.000  0.000  0.000  0.000  0.654

band     2 # energy   -5.31393983 # occ.  2.00000000

ion      s     py     pz     px    dxy    dyz    dz2    dxz  x2-y2    tot
    1  0.320  0.000  0.001  0.002  0.000  0.000  0.000  0.000  0.000  0.324
    2  0.011  0.002  0.007  0.007  0.000  0.000  0.000  0.000  0.000  0.028
    3  0.320  0.001  0.001  0.001  0.000  0.000  0.000  0.000  0.000  0.324
tot    0.651  0.004  0.009  0.010  0.000  0.001  0.000  0.001  0.000  0.676

band     3 # energy   -4.50915324 # occ.  2.00000000

ion      s     py     pz     px    dxy    dyz    dz2    dxz  x2-y2    tot
    1  0.156  0.000  0.006  0.001  0.000  0.001  0.000  0.001  0.000  0.166
    2  0.405  0.000  0.000  0.000  0.000  0.000  0.000  0.000  0.000  0.406
    3  0.156  0.001  0.006  0.000  0.000  0.000  0.000  0.001  0.000  0.166
tot    0.718  0.002  0.013  0.001  0.001  0.001  0.000  0.002  0.000  0.737

band     4 # energy    0.88757113 # occ.  2.00000000

ion      s     py     pz     px    dxy    dyz    dz2    dxz  x2-y2    tot
    1  0.000  0.039  0.050  0.053  0.000  0.001  0.000  0.000  0.000  0.144
    2  0.000  0.001  0.134  0.001  0.000  0.001  0.000  0.001  0.000  0.137
    3  0.000  0.012  0.050  0.080  0.000  0.000  0.000  0.001  0.000  0.144
tot    0.001  0.052  0.234  0.134  0.000  0.002  0.001  0.001  0.000  0.425

band     5 # energy    1.31937110 # occ.  2.00000000

ion      s     py     pz     px    dxy    dyz    dz2    dxz  x2-y2    tot
    1  0.010  0.007  0.097  0.073  0.000  0.001  0.000  0.000  0.000  0.187
    2  0.002  0.039  0.011  0.029  0.000  0.001  0.000  0.002  0.000  0.085
    3  0.010  0.044  0.097  0.036  0.000  0.000  0.000  0.001  0.000  0.187
tot    0.021  0.090  0.205  0.137  0.000  0.002  0.000  0.004  0.000  0.459

band     6 # energy    1.98533704 # occ.  2.00000000

ion      s     py     pz     px    dxy    dyz    dz2    dxz  x2-y2    tot
    1  0.006  0.103  0.014  0.011  0.000  0.000  0.000  0.000  0.000  0.135
    2  0.002  0.098  0.000  0.072  0.000  0.000  0.001  0.000  0.000  0.174
    3  0.006  0.062  0.014  0.051  0.000  0.000  0.000  0.000  0.000  0.135
tot    0.015  0.263  0.027  0.135  0.000  0.000  0.001  0.001  0.000  0.443

band     7 # energy    2.51961391 # occ.  2.00000000

ion      s     py     pz     px    dxy    dyz    dz2    dxz  x2-y2    tot
    1  0.017  0.044  0.042  0.008  0.000  0.001  0.001  0.002  0.000  0.114
    2  0.003  0.054  0.011  0.135  0.000  0.000  0.000  0.001  0.000  0.204
    3  0.017  0.006  0.042  0.046  0.000  0.001  0.001  0.002  0.000  0.114
tot    0.036  0.103  0.094  0.189  0.001  0.002  0.001  0.005  0.000  0.432

band     8 # energy    4.56919962 # occ.  2.00000000

ion      s     py     pz     px    dxy    dyz    dz2    dxz  x2-y2    tot
    1  0.006  0.008  0.036  0.096  0.000  0.004  0.002  0.000  0.000  0.152
    2  0.014  0.133  0.007  0.045  0.004  0.000  0.001  0.001  0.001  0.205
    3  0.006  0.097  0.036  0.007  0.000  0.001  0.002  0.003  0.000  0.152
tot    0.026  0.238  0.080  0.147  0.004  0.005  0.004  0.004  0.002  0.509

band     9 # energy    4.75213229 # occ.  2.00000000

ion      s     py     pz     px    dxy    dyz    dz2    dxz  x2-y2    tot
    1  0.012  0.076  0.025  0.095  0.001  0.003  0.000  0.000  0.001  0.213
    2  0.000  0.009  0.092  0.009  0.000  0.002  0.000  0.001  0.000  0.113
    3  0.012  0.164  0.025  0.007  0.002  0.001  0.000  0.002  0.000  0.213
tot    0.025  0.248  0.142  0.111  0.002  0.006  0.000  0.002  0.001  0.539

band    10 # energy    6.38469273 # occ.  0.00000000

ion      s     py     pz     px    dxy    dyz    dz2    dxz  x2-y2    tot
    1  0.005  0.072  0.077  0.013  0.003  0.004  0.000  0.002  0.000  0.176
    2  0.040  0.066  0.022  0.025  0.003  0.002  0.001  0.001  0.001  0.163
    3  0.005  0.017  0.077  0.068  0.002  0.004  0.000  0.001  0.001  0.176
tot    0.049  0.155  0.177  0.106  0.007  0.011  0.002  0.004  0.003  0.515

band    11 # energy    6.46406059 # occ.  0.00000000

ion      s     py     pz     px    dxy    dyz    dz2    dxz  x2-y2    tot
    1  0.015  0.080  0.040  0.007  0.003  0.001  0.000  0.001  0.001  0.149
    2  0.009  0.016  0.154  0.018  0.001  0.010  0.000  0.003  0.001  0.213
    3  0.015  0.038  0.040  0.050  0.003  0.002  0.000  0.000  0.001  0.149
tot    0.038  0.133  0.234  0.075  0.008  0.013  0.000  0.005  0.004  0.510

band    12 # energy    8.68197447 # occ.  0.00000000

ion      s     py     pz     px    dxy    dyz    dz2    dxz  x2-y2    tot
    1  0.001  0.002  0.002  0.003  0.015  0.001  0.010  0.011  0.007  0.052
    2  0.000  0.017  0.001  0.006  0.012  0.002  0.014  0.006  0.004  0.062
    3  0.001  0.005  0.002  0.000  0.019  0.010  0.010  0.001  0.004  0.052
tot    0.003  0.025  0.004  0.009  0.045  0.013  0.034  0.018  0.015  0.167

band    13 # energy    8.91796407 # occ.  0.00000000

ion      s     py     pz     px    dxy    dyz    dz2    dxz  x2-y2    tot
    1  0.004  0.047  0.101  0.088  0.001  0.001  0.000  0.002  0.000  0.244
    2  0.001  0.039  0.053  0.117  0.000  0.000  0.000  0.001  0.000  0.212
    3  0.004  0.022  0.101  0.113  0.001  0.001  0.000  0.002  0.000  0.244
tot    0.010  0.108  0.254  0.318  0.002  0.002  0.001  0.004  0.001  0.699

band    14 # energy   12.36858350 # occ.  0.00000000

ion      s     py     pz     px    dxy    dyz    dz2    dxz  x2-y2    tot
    1  0.003  0.020  0.002  0.050  0.008  0.001  0.013  0.008  0.005  0.109
    2  0.002  0.006  0.000  0.011  0.010  0.005  0.014  0.013  0.005  0.065
    3  0.003  0.015  0.002  0.056  0.011  0.006  0.013  0.002  0.002  0.109
tot    0.007  0.041  0.004  0.117  0.028  0.011  0.040  0.023  0.012  0.284


 k-point     5 :   -0.42857143 0.00000000 0.00000000     weight = 0.00408163

band     1 # energy   -6.94644388 # occ.  2.00000000

ion      s     py     pz     px    dxy    dyz    dz2    dxz  x2-y2    tot
    1  0.187  0.004  0.000  0.003  0.000  0.000  0.000  0.000  0.000  0.195
    2  0.261  0.002  0.000  0.001  0.000  0.000  0.000  0.000  0.000  0.264
    3  0.187  0.000  0.000  0.007  0.000  0.000  0.000  0.000  0.000  0.195
tot    0.635  0.007  0.000  0.011  0.000  0.000  0.000  0.000  0.000  0.654

band     2 # energy   -5.31393983 # occ.  2.00000000

ion      s     py     pz     px    dxy    dyz    dz2    dxz  x2-y2    tot
    1  0.320  0.000  0.001  0.002  0.000  0.000  0.000  0.000  0.000  0.324
    2  0.011  0.002  0.007  0.007  0.000  0.000  0.000  0.000  0.000  0.028
    3  0.320  0.001  0.001  0.001  0.000  0.000  0.000  0.000  0.000  0.324
tot    0.651  0.004  0.009  0.010  0.000  0.001  0.000  0.001  0.000  0.676

band     3 # energy   -4.50915324 # occ.  2.00000000

ion      s     py     pz     px    dxy    dyz    dz2    dxz  x2-y2    tot
    1  0.156  0.000  0.006  0.001  0.000  0.001  0.000  0.001  0.000  0.166
    2  0.405  0.000  0.000  0.000  0.000  0.000  0.000  0.000  0.000  0.406
    3  0.156  0.001  0.006  0.000  0.000  0.000  0.000  0.001  0.000  0.166
tot    0.718  0.002  0.013  0.001  0.001  0.001  0.000  0.002  0.000  0.737

band     4 # energy    0.88757113 # occ.  2.00000000

ion      s     py     pz     px    dxy    dyz    dz2    dxz  x2-y2    tot
    1  0.000  0.039  0.050  0.053  0.000  0.001  0.000  0.000  0.000  0.144
    2  0.000  0.001  0.134  0.001  0.000  0.001  0.000  0.001  0.000  0.137
    3  0.000  0.012  0.050  0.080  0.000  0.000  0.000  0.001  0.000  0.144
tot    0.001  0.052  0.234  0.134  0.000  0.002  0.001  0.001  0.000  0.425

band     5 # energy    1.31937110 # occ.  2.00000000

ion      s     py     pz     px    dxy    dyz    dz2    dxz  x2-y2    tot
    1  0.010  0.007  0.097  0.073  0.000  0.001  0.000  0.000  0.000  0.187
    2  0.002  0.039  0.011  0.029  0.000  0.001  0.000  0.002  0.000  0.085
    3  0.010  0.044  0.097  0.036  0.000  0.000  0.000  0.001  0.000  0.187
tot    0.021  0.090  0.205  0.137  0.000  0.002  0.000  0.004  0.000  0.459

band     6 # energy    1.98533704 # occ.  2.00000000

ion      s     py     pz     px    dxy    dyz    dz2    dxz  x2-y2    tot
    1  0.006  0.103  0.014  0.011  0.000  0.000  0.000  0.000  0.000  0.135
    2  0.002  0.098  0.000  0.072  0.000  0.000  0.001  0.000  0.000  0.174
    3  0.006  0.062  0.014  0.051  0.000  0.000  0.000  0.000  0.000  0.135
tot    0.015  0.263  0.027  0.135  0.000  0.000  0.001  0.001  0.000  0.443

band     7 # energy    2.51961391 # occ.  2.00000000

ion      s     py     pz     px    dxy    dyz    dz2    dxz  x2-y2    tot
    1  0.017  0.044  0.042  0.008  0.000  0.001  0.001  0.002  0.000  0.114
    2  0.003  0.054  0.011  0.135  0.000  0.000  0.000  0.001  0.000  0.204
    3  0.017  0.006  0.042  0.046  0.000  0.001  0.001  0.002  0.000  0.114
tot    0.036  0.103  0.094  0.189  0.001  0.002  0.001  0.005  0.000  0.432

band     8 # energy    4.56919962 # occ.  2.00000000

ion      s     py     pz     px    dxy    dyz    dz2    dxz  x2-y2    tot
    1  0.006  0.008  0.036  0.096  0.000  0.004  0.002  0.000  0.000  0.152
    2  0.014  0.133  0.007  0.045  0.004  0.000  0.001  0.001  0.001  0.205
    3  0.006  0.097  0.036  0.007  0.000  0.001  0.002  0.003  0.000  0.152
tot    0.026  0.238  0.080  0.147  0.004  0.005  0.004  0.004  0.002  0.509

band     9 # energy    4.75213229 # occ.  2.00000000

ion      s     py     pz     px    dxy    dyz    dz2    dxz  x2-y2    tot
    1  0.012  0.076  0.025  0.095  0.001  0.003  0.000  0.000  0.001  0.213
    2  0.000  0.009  0.092  0.009  0.000  0.002  0.000  0.001  0.000  0.113
    3  0.012  0.164  0.025  0.007  0.002  0.001  0.000  0.002  0.000  0.213
tot    0.025  0.248  0.142  0.111  0.002  0.006  0.000  0.002  0.001  0.539

band    10 # energy    6.38469273 # occ.  0.00000000

ion      s     py     pz     px    dxy    dyz    dz2    dxz  x2-y2    tot
    1  0.005  0.072  0.077  0.013  0.003  0.004  0.000  0.002  0.000  0.176
    2  0.040  0.066  0.022  0.025  0.003  0.002  0.001  0.001  0.001  0.163
    3  0.005  0.017  0.077  0.068  0.002  0.004  0.000  0.001  0.001  0.176
tot    0.049  0.155  0.177  0.106  0.007  0.011  0.002  0.004  0.003  0.515

band    11 # energy    6.46406059 # occ.  0.00000000

ion      s     py     pz     px    dxy    dyz    dz2    dxz  x2-y2    tot
    1  0.015  0.080  0.040  0.007  0.003  0.001  0.000  0.001  0.001  0.149
    2  0.009  0.016  0.154  0.018  0.001  0.010  0.000  0.003  0.001  0.213
    3  0.015  0.038  0.040  0.050  0.003  0.002  0.000  0.000  0.001  0.149
tot    0.038  0.133  0.234  0.075  0.008  0.013  0.000  0.005  0.004  0.510

band    12 # energy    8.68197447 # occ.  0.00000000

ion      s     py     pz     px    dxy    dyz    dz2    dxz  x2-y2    tot
    1  0.001  0.002  0.002  0.003  0.015  0.001  0.010  0.011  0.007  0.052
    2  0.000  0.017  0.001  0.006  0.012  0.002  0.014  0.006  0.004  0.062
    3  0.001  0.005  0.002  0.000  0.019  0.010  0.010  0.001  0.004  0.052
tot    0.003  0.025  0.004  0.009  0.045  0.013  0.034  0.018  0.015  0.167

band    13 # energy    8.91796407 # occ.  0.00000000
