Te-a                                    
           1
     2.259320   -3.913258   -0.000000
     2.259320    3.913258    0.000000
    -0.000000    0.000000    5.953197
   Te
   3
Direct configuration=     1
   0.26862376  0.00000000  0.16666667
   0.00000000  0.26862376  0.83333333
   0.73137624  0.73137624  0.50000000
