   8   8   1   0
  0.5260920E+02  0.4929417E-09  0.4929417E-09  0.2000000E-08  0.5000000E-15
   1.0000000000000000E-004
  CAR 
 C                                       
      5.00000000    -15.00000000 3000     -3.76125375      1.00000000
    -15.000  0.2584E+01  0.8856E+01
    -14.993  0.2628E+01  0.8873E+01
    -14.987  0.2672E+01  0.8891E+01
    -14.980  0.2716E+01  0.8909E+01
    -14.973  0.2759E+01  0.8927E+01
    -14.967  0.2803E+01  0.8945E+01
    -14.960  0.2847E+01  0.8964E+01
    -14.953  0.2891E+01  0.8983E+01
    -14.947  0.2935E+01  0.9003E+01
    -14.940  0.2979E+01  0.9023E+01
    -14.933  0.3023E+01  0.9043E+01
    -14.927  0.3066E+01  0.9063E+01
    -14.920  0.3110E+01  0.9083E+01
    -14.913  0.3154E+01  0.9104E+01
    -14.907  0.3198E+01  0.9126E+01
    -14.900  0.3242E+01  0.9147E+01
    -14.893  0.3286E+01  0.9169E+01
    -14.887  0.3330E+01  0.9191E+01
    -14.880  0.3373E+01  0.9213E+01
    -14.873  0.3417E+01  0.9236E+01
    -14.867  0.3461E+01  0.9259E+01
    -14.860  0.3505E+01  0.9282E+01
    -14.853  0.3549E+01  0.9306E+01
    -14.847  0.3593E+01  0.9329E+01
    -14.840  0.3637E+01  0.9353E+01
    -14.833  0.3680E+01  0.9378E+01
    -14.827  0.3724E+01  0.9403E+01
    -14.820  0.3768E+01  0.9428E+01
    -14.813  0.3812E+01  0.9453E+01
    -14.807  0.3856E+01  0.9478E+01
    -14.800  0.3900E+01  0.9504E+01
    -14.793  0.3944E+01  0.9530E+01
    -14.787  0.3987E+01  0.9557E+01
    -14.780  0.4031E+01  0.9584E+01
    -14.773  0.4075E+01  0.9611E+01
    -14.767  0.4119E+01  0.9638E+01
    -14.760  0.1554E+01  0.9663E+01
    -14.753  0.1551E+01  0.9673E+01
    -14.747  0.1549E+01  0.9683E+01
    -14.740  0.1547E+01  0.9694E+01
    -14.733  0.1545E+01  0.9704E+01
    -14.727  0.1543E+01  0.9714E+01
    -14.720  0.1541E+01  0.9725E+01
    -14.713  0.1539E+01  0.9735E+01
    -14.707  0.1537E+01  0.9745E+01
    -14.700  0.1535E+01  0.9755E+01
    -14.693  0.1533E+01  0.9766E+01
    -14.687  0.1531E+01  0.9776E+01
    -14.680  0.1529E+01  0.9786E+01
    -14.673  0.1526E+01  0.9796E+01
    -14.667  0.1524E+01  0.9806E+01
    -14.660  0.1522E+01  0.9816E+01
    -14.653  0.1520E+01  0.9827E+01
    -14.647  0.1518E+01  0.9837E+01
    -14.640  0.1516E+01  0.9847E+01
    -14.633  0.1514E+01  0.9857E+01
    -14.627  0.1512E+01  0.9867E+01
    -14.620  0.1510E+01  0.9877E+01
    -14.613  0.1508E+01  0.9887E+01
    -14.607  0.1506E+01  0.9897E+01
    -14.600  0.1504E+01  0.9907E+01
    -14.593  0.1501E+01  0.9917E+01
    -14.587  0.1499E+01  0.9927E+01
    -14.580  0.1497E+01  0.9937E+01
    -14.573  0.1495E+01  0.9947E+01
    -14.567  0.1493E+01  0.9957E+01
    -14.560  0.1491E+01  0.9967E+01
    -14.553  0.1489E+01  0.9977E+01
    -14.547  0.1487E+01  0.9987E+01
    -14.540  0.1485E+01  0.9997E+01
    -14.533  0.1483E+01  0.1001E+02
    -14.527  0.1481E+01  0.1002E+02
    -14.520  0.1479E+01  0.1003E+02
    -14.513  0.1476E+01  0.1004E+02
    -14.507  0.1474E+01  0.1005E+02
    -14.500  0.1472E+01  0.1006E+02
    -14.493  0.1470E+01  0.1007E+02
    -14.486  0.1468E+01  0.1008E+02
    -14.480  0.1466E+01  0.1009E+02
    -14.473  0.1464E+01  0.1010E+02
    -14.466  0.1462E+01  0.1011E+02
    -14.460  0.1460E+01  0.1011E+02
    -14.453  0.1458E+01  0.1012E+02
    -14.446  0.1456E+01  0.1013E+02
    -14.440  0.1454E+01  0.1014E+02
    -14.433  0.1451E+01  0.1015E+02
    -14.426  0.1449E+01  0.1016E+02
    -14.420  0.1447E+01  0.1017E+02
    -14.413  0.1445E+01  0.1018E+02
    -14.406  0.1443E+01  0.1019E+02
    -14.400  0.1441E+01  0.1020E+02
    -14.393  0.1439E+01  0.1021E+02
    -14.386  0.1437E+01  0.1022E+02
    -14.380  0.1435E+01  0.1023E+02
    -14.373  0.1433E+01  0.1024E+02
    -14.366  0.1431E+01  0.1025E+02
    -14.360  0.1429E+01  0.1026E+02
    -14.353  0.1426E+01  0.1027E+02
    -14.346  0.1424E+01  0.1028E+02
    -14.340  0.1422E+01  0.1029E+02
    -14.333  0.1420E+01  0.1030E+02
    -14.326  0.1418E+01  0.1031E+02
    -14.320  0.1416E+01  0.1032E+02
    -14.313  0.1414E+01  0.1033E+02
    -14.306  0.1412E+01  0.1034E+02
    -14.300  0.1410E+01  0.1034E+02
    -14.293  0.1408E+01  0.1035E+02
    -14.286  0.1406E+01  0.1036E+02
    -14.280  0.1404E+01  0.1037E+02
    -14.273  0.1401E+01  0.1038E+02
    -14.266  0.1399E+01  0.1039E+02
    -14.260  0.1397E+01  0.1040E+02
    -14.253  0.1395E+01  0.1041E+02
    -14.246  0.1393E+01  0.1042E+02
    -14.240  0.1391E+01  0.1043E+02
    -14.233  0.1389E+01  0.1044E+02
    -14.226  0.1387E+01  0.1045E+02
    -14.220  0.1385E+01  0.1046E+02
    -14.213  0.1383E+01  0.1047E+02
    -14.206  0.1381E+01  0.1047E+02
    -14.200  0.1379E+01  0.1048E+02
    -14.193  0.1376E+01  0.1049E+02
    -14.186  0.1374E+01  0.1050E+02
    -14.180  0.1372E+01  0.1051E+02
    -14.173  0.1370E+01  0.1052E+02
    -14.166  0.1368E+01  0.1053E+02
    -14.160  0.1366E+01  0.1054E+02
    -14.153  0.1364E+01  0.1055E+02
    -14.146  0.1362E+01  0.1056E+02
    -14.140  0.1360E+01  0.1057E+02
    -14.133  0.1358E+01  0.1058E+02
    -14.126  0.1356E+01  0.1058E+02
    -14.120  0.1354E+01  0.1059E+02
    -14.113  0.1351E+01  0.1060E+02
    -14.106  0.1349E+01  0.1061E+02
    -14.100  0.1347E+01  0.1062E+02
    -14.093  0.1345E+01  0.1063E+02
    -14.086  0.1343E+01  0.1064E+02
    -14.080  0.1341E+01  0.1065E+02
    -14.073  0.1339E+01  0.1066E+02
    -14.066  0.1337E+01  0.1066E+02
    -14.060  0.1335E+01  0.1067E+02
    -14.053  0.1333E+01  0.1068E+02
    -14.046  0.1331E+01  0.1069E+02
    -14.040  0.1329E+01  0.1070E+02
    -14.033  0.1326E+01  0.1071E+02
    -14.026  0.1324E+01  0.1072E+02
    -14.020  0.1322E+01  0.1073E+02
    -14.013  0.1320E+01  0.1074E+02
    -14.006  0.1318E+01  0.1074E+02
    -14.000  0.1316E+01  0.1075E+02
    -13.993  0.1314E+01  0.1076E+02
    -13.986  0.1312E+01  0.1077E+02
    -13.980  0.1310E+01  0.1078E+02
    -13.973  0.1308E+01  0.1079E+02
    -13.966  0.1306E+01  0.1080E+02
    -13.960  0.1304E+01  0.1081E+02
    -13.953  0.1301E+01  0.1081E+02
    -13.946  0.1299E+01  0.1082E+02
    -13.940  0.1297E+01  0.1083E+02
    -13.933  0.1295E+01  0.1084E+02
    -13.926  0.1293E+01  0.1085E+02
    -13.920  0.1291E+01  0.1086E+02
    -13.913  0.1289E+01  0.1087E+02
    -13.906  0.1287E+01  0.1087E+02
    -13.900  0.1285E+01  0.1088E+02
    -13.893  0.1283E+01  0.1089E+02
    -13.886  0.1281E+01  0.1090E+02
    -13.880  0.1279E+01  0.1091E+02
    -13.873  0.1276E+01  0.1092E+02
    -13.866  0.1274E+01  0.1093E+02
    -13.860  0.1272E+01  0.1093E+02
    -13.853  0.1270E+01  0.1094E+02
    -13.846  0.1268E+01  0.1095E+02
    -13.840  0.1266E+01  0.1096E+02
    -13.833  0.1264E+01  0.1097E+02
    -13.826  0.1262E+01  0.1098E+02
    -13.820  0.1260E+01  0.1099E+02
    -13.813  0.1258E+01  0.1099E+02
    -13.806  0.1256E+01  0.1100E+02
    -13.800  0.1254E+01  0.1101E+02
    -13.793  0.1251E+01  0.1102E+02
    -13.786  0.1249E+01  0.1103E+02
    -13.780  0.1247E+01  0.1104E+02
    -13.773  0.1245E+01  0.1104E+02
    -13.766  0.1243E+01  0.1105E+02
    -13.760  0.1241E+01  0.1106E+02
    -13.753  0.1239E+01  0.1107E+02
    -13.746  0.1237E+01  0.1108E+02
    -13.740  0.1235E+01  0.1109E+02
    -13.733  0.1233E+01  0.1109E+02
    -13.726  0.1231E+01  0.1110E+02
    -13.720  0.1229E+01  0.1111E+02
    -13.713  0.1226E+01  0.1112E+02
    -13.706  0.1224E+01  0.1113E+02
    -13.700  0.1222E+01  0.1113E+02
    -13.693  0.1220E+01  0.1114E+02
    -13.686  0.1218E+01  0.1115E+02
    -13.680  0.1216E+01  0.1116E+02
    -13.673  0.1214E+01  0.1117E+02
    -13.666  0.1212E+01  0.1117E+02
    -13.660  0.1210E+01  0.1118E+02
    -13.653  0.1208E+01  0.1119E+02
    -13.646  0.1206E+01  0.1120E+02
    -13.640  0.1204E+01  0.1121E+02
    -13.633  0.1201E+01  0.1122E+02
    -13.626  0.1199E+01  0.1122E+02
    -13.620  0.1197E+01  0.1123E+02
    -13.613  0.1195E+01  0.1124E+02
    -13.606  0.1193E+01  0.1125E+02
    -13.600  0.1191E+01  0.1126E+02
    -13.593  0.1189E+01  0.1126E+02
    -13.586  0.1187E+01  0.1127E+02
    -13.580  0.1185E+01  0.1128E+02
    -13.573  0.1183E+01  0.1129E+02
    -13.566  0.1181E+01  0.1129E+02
    -13.560  0.1179E+01  0.1130E+02
    -13.553  0.1176E+01  0.1131E+02
    -13.546  0.1174E+01  0.1132E+02
    -13.540  0.1172E+01  0.1133E+02
    -13.533  0.1170E+01  0.1133E+02
    -13.526  0.1168E+01  0.1134E+02
    -13.520  0.1166E+01  0.1135E+02
    -13.513  0.1164E+01  0.1136E+02
    -13.506  0.1162E+01  0.1136E+02
    -13.499  0.1160E+01  0.1137E+02
    -13.493  0.1158E+01  0.1138E+02
    -13.486  0.1156E+01  0.1139E+02
    -13.479  0.1154E+01  0.1140E+02
    -13.473  0.1151E+01  0.1140E+02
    -13.466  0.1149E+01  0.1141E+02
    -13.459  0.1147E+01  0.1142E+02
    -13.453  0.1292E+01  0.1143E+02
    -13.446  0.1291E+01  0.1144E+02
    -13.439  0.1289E+01  0.1144E+02
    -13.433  0.1288E+01  0.1145E+02
    -13.426  0.1287E+01  0.1146E+02
    -13.419  0.1286E+01  0.1147E+02
    -13.413  0.1285E+01  0.1148E+02
    -13.406  0.1283E+01  0.1149E+02
    -13.399  0.1282E+01  0.1150E+02
    -13.393  0.1281E+01  0.1150E+02
    -13.386  0.1280E+01  0.1151E+02
    -13.379  0.1278E+01  0.1152E+02
    -13.373  0.1277E+01  0.1153E+02
    -13.366  0.1276E+01  0.1154E+02
    -13.359  0.1275E+01  0.1155E+02
    -13.353  0.1273E+01  0.1155E+02
    -13.346  0.1272E+01  0.1156E+02
    -13.339  0.1271E+01  0.1157E+02
    -13.333  0.1270E+01  0.1158E+02
    -13.326  0.1268E+01  0.1159E+02
    -13.319  0.1267E+01  0.1160E+02
    -13.313  0.1266E+01  0.1161E+02
    -13.306  0.1265E+01  0.1161E+02
    -13.299  0.1264E+01  0.1162E+02
    -13.293  0.1262E+01  0.1163E+02
    -13.286  0.1261E+01  0.1164E+02
    -13.279  0.1260E+01  0.1165E+02
    -13.273  0.1262E+01  0.1166E+02
    -13.266  0.1265E+01  0.1166E+02
    -13.259  0.1268E+01  0.1167E+02
    -13.253  0.1271E+01  0.1168E+02
    -13.246  0.1274E+01  0.1169E+02
    -13.239  0.1277E+01  0.1170E+02
    -13.233  0.1280E+01  0.1171E+02
    -13.226  0.1283E+01  0.1172E+02
    -13.219  0.1286E+01  0.1172E+02
    -13.213  0.1289E+01  0.1173E+02
    -13.206  0.1292E+01  0.1174E+02
    -13.199  0.1295E+01  0.1175E+02
    -13.193  0.1299E+01  0.1176E+02
    -13.186  0.1302E+01  0.1177E+02
    -13.179  0.1305E+01  0.1178E+02
    -13.173  0.1308E+01  0.1178E+02
    -13.166  0.1311E+01  0.1179E+02
    -13.159  0.1314E+01  0.1180E+02
    -13.153  0.1317E+01  0.1181E+02
    -13.146  0.1320E+01  0.1182E+02
    -13.139  0.1323E+01  0.1183E+02
    -13.133  0.1326E+01  0.1184E+02
    -13.126  0.1329E+01  0.1185E+02
    -13.119  0.1332E+01  0.1186E+02
    -13.113  0.1336E+01  0.1186E+02
    -13.106  0.1339E+01  0.1187E+02
    -13.099  0.1342E+01  0.1188E+02
    -13.093  0.1345E+01  0.1189E+02
    -13.086  0.1348E+01  0.1190E+02
    -13.079  0.1351E+01  0.1191E+02
    -13.073  0.1354E+01  0.1192E+02
    -13.066  0.1357E+01  0.1193E+02
    -13.059  0.1360E+01  0.1194E+02
    -13.053  0.1363E+01  0.1194E+02
    -13.046  0.1366E+01  0.1195E+02
    -13.039  0.1369E+01  0.1196E+02
    -13.033  0.1373E+01  0.1197E+02
    -13.026  0.1376E+01  0.1198E+02
    -13.019  0.1379E+01  0.1199E+02
    -13.013  0.1382E+01  0.1200E+02
    -13.006  0.1385E+01  0.1201E+02
    -12.999  0.1388E+01  0.1202E+02
    -12.993  0.1391E+01  0.1203E+02
    -12.986  0.1394E+01  0.1204E+02
    -12.979  0.1397E+01  0.1205E+02
    -12.973  0.1400E+01  0.1206E+02
    -12.966  0.1403E+01  0.1206E+02
    -12.959  0.1406E+01  0.1207E+02
    -12.953  0.1409E+01  0.1208E+02
    -12.946  0.1413E+01  0.1209E+02
    -12.939  0.1416E+01  0.1210E+02
    -12.933  0.1419E+01  0.1211E+02
    -12.926  0.1422E+01  0.1212E+02
    -12.919  0.1425E+01  0.1213E+02
    -12.913  0.1428E+01  0.1214E+02
    -12.906  0.1431E+01  0.1215E+02
    -12.899  0.1434E+01  0.1216E+02
    -12.893  0.1437E+01  0.1217E+02
    -12.886  0.1440E+01  0.1218E+02
    -12.879  0.1443E+01  0.1219E+02
    -12.873  0.1446E+01  0.1220E+02
    -12.866  0.1450E+01  0.1221E+02
    -12.859  0.1453E+01  0.1222E+02
    -12.853  0.1456E+01  0.1223E+02
    -12.846  0.1459E+01  0.1224E+02
    -12.839  0.1462E+01  0.1225E+02
    -12.833  0.1465E+01  0.1226E+02
    -12.826  0.1468E+01  0.1227E+02
    -12.819  0.1471E+01  0.1228E+02
    -12.813  0.1474E+01  0.1229E+02
    -12.806  0.1477E+01  0.1230E+02
    -12.799  0.1480E+01  0.1231E+02
    -12.793  0.1483E+01  0.1232E+02
    -12.786  0.1487E+01  0.1233E+02
    -12.779  0.1490E+01  0.1233E+02
    -12.773  0.1493E+01  0.1234E+02
    -12.766  0.1496E+01  0.1235E+02
    -12.759  0.1499E+01  0.1236E+02
    -12.753  0.1502E+01  0.1237E+02
    -12.746  0.1505E+01  0.1238E+02
    -12.739  0.1508E+01  0.1239E+02
    -12.733  0.1511E+01  0.1241E+02
    -12.726  0.1514E+01  0.1242E+02
    -12.719  0.1517E+01  0.1243E+02
    -12.713  0.1520E+01  0.1244E+02
    -12.706  0.1523E+01  0.1245E+02
    -12.699  0.1527E+01  0.1246E+02
    -12.693  0.1530E+01  0.1247E+02
    -12.686  0.1533E+01  0.1248E+02
    -12.679  0.1536E+01  0.1249E+02
    -12.673  0.1539E+01  0.1250E+02
    -12.666  0.1542E+01  0.1251E+02
    -12.659  0.1545E+01  0.1252E+02
    -12.653  0.1548E+01  0.1253E+02
    -12.646  0.1551E+01  0.1254E+02
    -12.639  0.1554E+01  0.1255E+02
    -12.633  0.1557E+01  0.1256E+02
    -12.626  0.1560E+01  0.1257E+02
    -12.619  0.1564E+01  0.1258E+02
    -12.613  0.1567E+01  0.1259E+02
    -12.606  0.1570E+01  0.1260E+02
    -12.599  0.1573E+01  0.1261E+02
    -12.593  0.1576E+01  0.1262E+02
    -12.586  0.1579E+01  0.1263E+02
    -12.579  0.1582E+01  0.1264E+02
    -12.573  0.1585E+01  0.1265E+02
    -12.566  0.1588E+01  0.1266E+02
    -12.559  0.1591E+01  0.1267E+02
    -12.553  0.1594E+01  0.1268E+02
    -12.546  0.1597E+01  0.1270E+02
    -12.539  0.1600E+01  0.1271E+02
    -12.533  0.1604E+01  0.1272E+02
    -12.526  0.1607E+01  0.1273E+02
    -12.519  0.1610E+01  0.1274E+02
    -12.513  0.1613E+01  0.1275E+02
    -12.506  0.1616E+01  0.1276E+02
    -12.499  0.1619E+01  0.1277E+02
    -12.492  0.1622E+01  0.1278E+02
    -12.486  0.1625E+01  0.1279E+02
    -12.479  0.6803E+00  0.1292E+02
    -12.472  0.6820E+00  0.1293E+02
    -12.466  0.6836E+00  0.1293E+02
    -12.459  0.6852E+00  0.1294E+02
    -12.452  0.6869E+00  0.1294E+02
    -12.446  0.6885E+00  0.1295E+02
    -12.439  0.6901E+00  0.1295E+02
    -12.432  0.6917E+00  0.1295E+02
    -12.426  0.6934E+00  0.1296E+02
    -12.419  0.6950E+00  0.1296E+02
    -12.412  0.6966E+00  0.1297E+02
    -12.406  0.6982E+00  0.1297E+02
    -12.399  0.6999E+00  0.1298E+02
    -12.392  0.7015E+00  0.1298E+02
    -12.386  0.7031E+00  0.1299E+02
    -12.379  0.7047E+00  0.1299E+02
    -12.372  0.7064E+00  0.1300E+02
    -12.366  0.7080E+00  0.1300E+02
    -12.359  0.7096E+00  0.1301E+02
    -12.352  0.7113E+00  0.1301E+02
    -12.346  0.7129E+00  0.1302E+02
    -12.339  0.7145E+00  0.1302E+02
    -12.332  0.7161E+00  0.1302E+02
    -12.326  0.7178E+00  0.1303E+02
    -12.319  0.7194E+00  0.1303E+02
    -12.312  0.7210E+00  0.1304E+02
    -12.306  0.7226E+00  0.1304E+02
    -12.299  0.7243E+00  0.1305E+02
    -12.292  0.7259E+00  0.1305E+02
    -12.286  0.7275E+00  0.1306E+02
    -12.279  0.7291E+00  0.1306E+02
    -12.272  0.7308E+00  0.1307E+02
    -12.266  0.7324E+00  0.1307E+02
    -12.259  0.7340E+00  0.1308E+02
    -12.252  0.7356E+00  0.1308E+02
    -12.246  0.7373E+00  0.1309E+02
    -12.239  0.7389E+00  0.1309E+02
    -12.232  0.7405E+00  0.1310E+02
    -12.226  0.7422E+00  0.1310E+02
    -12.219  0.7438E+00  0.1311E+02
    -12.212  0.7454E+00  0.1311E+02
    -12.206  0.7470E+00  0.1312E+02
    -12.199  0.7487E+00  0.1312E+02
    -12.192  0.7503E+00  0.1313E+02
    -12.186  0.7519E+00  0.1313E+02
    -12.179  0.7535E+00  0.1314E+02
    -12.172  0.7552E+00  0.1314E+02
    -12.166  0.7568E+00  0.1315E+02
    -12.159  0.7584E+00  0.1315E+02
    -12.152  0.7600E+00  0.1316E+02
    -12.146  0.7617E+00  0.1316E+02
    -12.139  0.7633E+00  0.1317E+02
    -12.132  0.7649E+00  0.1317E+02
    -12.126  0.7666E+00  0.1318E+02
    -12.119  0.7682E+00  0.1318E+02
    -12.112  0.7698E+00  0.1319E+02
    -12.106  0.7714E+00  0.1319E+02
    -12.099  0.7731E+00  0.1320E+02
    -12.092  0.7747E+00  0.1320E+02
    -12.086  0.7763E+00  0.1321E+02
    -12.079  0.7779E+00  0.1321E+02
    -12.072  0.7796E+00  0.1322E+02
    -12.066  0.7812E+00  0.1322E+02
    -12.059  0.7828E+00  0.1323E+02
    -12.052  0.7844E+00  0.1323E+02
    -12.046  0.7861E+00  0.1324E+02
    -12.039  0.7877E+00  0.1325E+02
    -12.032  0.7893E+00  0.1325E+02
    -12.026  0.7910E+00  0.1326E+02
    -12.019  0.7926E+00  0.1326E+02
    -12.012  0.7942E+00  0.1327E+02
    -12.006  0.7958E+00  0.1327E+02
    -11.999  0.7975E+00  0.1328E+02
    -11.992  0.7991E+00  0.1328E+02
    -11.986  0.8007E+00  0.1329E+02
    -11.979  0.8023E+00  0.1329E+02
    -11.972  0.8040E+00  0.1330E+02
    -11.966  0.8056E+00  0.1330E+02
    -11.959  0.8072E+00  0.1331E+02
    -11.952  0.8088E+00  0.1331E+02
    -11.946  0.8105E+00  0.1332E+02
    -11.939  0.8121E+00  0.1333E+02
    -11.932  0.8137E+00  0.1333E+02
    -11.926  0.8154E+00  0.1334E+02
    -11.919  0.8170E+00  0.1334E+02
    -11.912  0.8186E+00  0.1335E+02
    -11.906  0.8202E+00  0.1335E+02
    -11.899  0.8219E+00  0.1336E+02
    -11.892  0.8235E+00  0.1336E+02
    -11.886  0.8251E+00  0.1337E+02
    -11.879  0.8267E+00  0.1337E+02
    -11.872  0.8284E+00  0.1338E+02
    -11.866  0.8300E+00  0.1339E+02
    -11.859  0.8316E+00  0.1339E+02
    -11.852  0.8332E+00  0.1340E+02
    -11.846  0.8349E+00  0.1340E+02
    -11.839  0.8365E+00  0.1341E+02
    -11.832  0.8381E+00  0.1341E+02
    -11.826  0.8397E+00  0.1342E+02
    -11.819  0.8414E+00  0.1342E+02
    -11.812  0.8430E+00  0.1343E+02
    -11.806  0.8446E+00  0.1344E+02
    -11.799  0.8463E+00  0.1344E+02
    -11.792  0.8479E+00  0.1345E+02
    -11.786  0.8495E+00  0.1345E+02
    -11.779  0.8511E+00  0.1346E+02
    -11.772  0.8528E+00  0.1346E+02
    -11.766  0.8544E+00  0.1347E+02
    -11.759  0.2643E+02  0.1374E+02
    -11.752  0.2349E+02  0.1390E+02
    -11.746  0.2055E+02  0.1405E+02
    -11.739  0.1761E+02  0.1418E+02
    -11.732  0.1467E+02  0.1428E+02
    -11.726  0.1173E+02  0.1437E+02
    -11.719  0.8791E+01  0.1444E+02
    -11.712  0.5851E+01  0.1449E+02
    -11.706  0.2912E+01  0.1452E+02
    -11.699  0.9624E+00  0.1453E+02
    -11.692  0.9603E+00  0.1454E+02
    -11.686  0.9581E+00  0.1454E+02
    -11.679  0.9560E+00  0.1455E+02
    -11.672  0.9539E+00  0.1456E+02
    -11.666  0.9517E+00  0.1456E+02
    -11.659  0.9496E+00  0.1457E+02
    -11.652  0.9474E+00  0.1457E+02
    -11.646  0.9453E+00  0.1458E+02
    -11.639  0.9432E+00  0.1459E+02
    -11.632  0.9410E+00  0.1459E+02
    -11.626  0.9389E+00  0.1460E+02
    -11.619  0.9367E+00  0.1461E+02
    -11.612  0.9346E+00  0.1461E+02
    -11.606  0.9325E+00  0.1462E+02
    -11.599  0.9303E+00  0.1462E+02
    -11.592  0.9282E+00  0.1463E+02
    -11.586  0.9260E+00  0.1464E+02
    -11.579  0.9239E+00  0.1464E+02
    -11.572  0.9218E+00  0.1465E+02
    -11.566  0.9196E+00  0.1466E+02
    -11.559  0.9175E+00  0.1466E+02
    -11.552  0.9153E+00  0.1467E+02
    -11.546  0.9132E+00  0.1467E+02
    -11.539  0.9111E+00  0.1468E+02
    -11.532  0.9089E+00  0.1469E+02
    -11.526  0.9068E+00  0.1469E+02
    -11.519  0.9046E+00  0.1470E+02
    -11.512  0.9025E+00  0.1470E+02
    -11.506  0.9004E+00  0.1471E+02
    -11.499  0.8982E+00  0.1472E+02
    -11.492  0.8961E+00  0.1472E+02
    -11.485  0.8939E+00  0.1473E+02
    -11.479  0.8918E+00  0.1473E+02
    -11.472  0.8897E+00  0.1474E+02
    -11.465  0.8875E+00  0.1475E+02
    -11.459  0.8854E+00  0.1475E+02
    -11.452  0.8832E+00  0.1476E+02
    -11.445  0.8811E+00  0.1476E+02
    -11.439  0.8790E+00  0.1477E+02
    -11.432  0.8768E+00  0.1478E+02
    -11.425  0.8747E+00  0.1478E+02
    -11.419  0.8725E+00  0.1479E+02
    -11.412  0.8704E+00  0.1479E+02
    -11.405  0.8683E+00  0.1480E+02
    -11.399  0.8661E+00  0.1480E+02
    -11.392  0.8640E+00  0.1481E+02
    -11.385  0.8618E+00  0.1482E+02
    -11.379  0.8597E+00  0.1482E+02
    -11.372  0.8576E+00  0.1483E+02
    -11.365  0.8554E+00  0.1483E+02
    -11.359  0.8533E+00  0.1484E+02
    -11.352  0.8511E+00  0.1484E+02
    -11.345  0.8490E+00  0.1485E+02
    -11.339  0.8469E+00  0.1486E+02
    -11.332  0.8447E+00  0.1486E+02
    -11.325  0.8426E+00  0.1487E+02
    -11.319  0.8404E+00  0.1487E+02
    -11.312  0.8383E+00  0.1488E+02
    -11.305  0.8362E+00  0.1488E+02
    -11.299  0.8340E+00  0.1489E+02
    -11.292  0.8319E+00  0.1490E+02
    -11.285  0.8297E+00  0.1490E+02
    -11.279  0.8276E+00  0.1491E+02
    -11.272  0.8255E+00  0.1491E+02
    -11.265  0.8233E+00  0.1492E+02
    -11.259  0.8212E+00  0.1492E+02
    -11.252  0.8190E+00  0.1493E+02
    -11.245  0.8169E+00  0.1493E+02
    -11.239  0.8148E+00  0.1494E+02
    -11.232  0.8126E+00  0.1494E+02
    -11.225  0.8105E+00  0.1495E+02
    -11.219  0.8083E+00  0.1496E+02
    -11.212  0.8062E+00  0.1496E+02
    -11.205  0.8041E+00  0.1497E+02
    -11.199  0.8019E+00  0.1497E+02
    -11.192  0.7998E+00  0.1498E+02
    -11.185  0.7976E+00  0.1498E+02
    -11.179  0.7955E+00  0.1499E+02
    -11.172  0.7934E+00  0.1499E+02
    -11.165  0.7912E+00  0.1500E+02
    -11.159  0.7891E+00  0.1500E+02
    -11.152  0.7869E+00  0.1501E+02
    -11.145  0.7848E+00  0.1501E+02
    -11.139  0.7827E+00  0.1502E+02
    -11.132  0.7805E+00  0.1502E+02
    -11.125  0.7784E+00  0.1503E+02
    -11.119  0.7762E+00  0.1503E+02
    -11.112  0.7741E+00  0.1504E+02
    -11.105  0.7720E+00  0.1504E+02
    -11.099  0.7698E+00  0.1505E+02
    -11.092  0.7677E+00  0.1506E+02
    -11.085  0.7655E+00  0.1506E+02
    -11.079  0.7634E+00  0.1507E+02
    -11.072  0.7613E+00  0.1507E+02
    -11.065  0.7591E+00  0.1508E+02
    -11.059  0.7570E+00  0.1508E+02
    -11.052  0.7548E+00  0.1509E+02
    -11.045  0.7527E+00  0.1509E+02
    -11.039  0.7506E+00  0.1510E+02
    -11.032  0.7484E+00  0.1510E+02
    -11.025  0.7463E+00  0.1511E+02
    -11.019  0.7441E+00  0.1511E+02
    -11.012  0.7420E+00  0.1512E+02
    -11.005  0.7399E+00  0.1512E+02
    -10.999  0.7377E+00  0.1513E+02
    -10.992  0.7356E+00  0.1513E+02
    -10.985  0.7334E+00  0.1514E+02
    -10.979  0.7313E+00  0.1514E+02
    -10.972  0.7292E+00  0.1515E+02
    -10.965  0.7270E+00  0.1515E+02
    -10.959  0.7249E+00  0.1515E+02
    -10.952  0.7227E+00  0.1516E+02
    -10.945  0.7206E+00  0.1516E+02
    -10.939  0.7185E+00  0.1517E+02
    -10.932  0.7163E+00  0.1517E+02
    -10.925  0.7142E+00  0.1518E+02
    -10.919  0.7120E+00  0.1518E+02
    -10.912  0.7099E+00  0.1519E+02
    -10.905  0.7078E+00  0.1519E+02
    -10.899  0.7056E+00  0.1520E+02
    -10.892  0.7035E+00  0.1520E+02
    -10.885  0.7013E+00  0.1521E+02
    -10.879  0.6992E+00  0.1521E+02
    -10.872  0.6971E+00  0.1522E+02
    -10.865  0.6949E+00  0.1522E+02
    -10.859  0.6928E+00  0.1523E+02
    -10.852  0.6906E+00  0.1523E+02
    -10.845  0.6885E+00  0.1523E+02
    -10.839  0.6864E+00  0.1524E+02
    -10.832  0.6842E+00  0.1524E+02
    -10.825  0.6821E+00  0.1525E+02
    -10.819  0.6799E+00  0.1525E+02
    -10.812  0.6778E+00  0.1526E+02
    -10.805  0.6757E+00  0.1526E+02
    -10.799  0.6735E+00  0.1527E+02
    -10.792  0.6714E+00  0.1527E+02
    -10.785  0.6692E+00  0.1528E+02
    -10.779  0.6671E+00  0.1528E+02
    -10.772  0.6650E+00  0.1528E+02
    -10.765  0.6628E+00  0.1529E+02
    -10.759  0.6607E+00  0.1529E+02
    -10.752  0.6585E+00  0.1530E+02
    -10.745  0.6564E+00  0.1530E+02
    -10.739  0.6543E+00  0.1531E+02
    -10.732  0.6521E+00  0.1531E+02
    -10.725  0.6500E+00  0.1532E+02
    -10.719  0.6478E+00  0.1532E+02
    -10.712  0.6457E+00  0.1532E+02
    -10.705  0.6436E+00  0.1533E+02
    -10.699  0.6414E+00  0.1533E+02
    -10.692  0.6393E+00  0.1534E+02
    -10.685  0.6371E+00  0.1534E+02
    -10.679  0.6350E+00  0.1535E+02
    -10.672  0.6329E+00  0.1535E+02
    -10.665  0.6307E+00  0.1535E+02
    -10.659  0.6286E+00  0.1536E+02
    -10.652  0.6264E+00  0.1536E+02
    -10.645  0.6243E+00  0.1537E+02
    -10.639  0.6222E+00  0.1537E+02
    -10.632  0.6200E+00  0.1537E+02
    -10.625  0.6179E+00  0.1538E+02
    -10.619  0.6157E+00  0.1538E+02
    -10.612  0.6136E+00  0.1539E+02
    -10.605  0.6115E+00  0.1539E+02
    -10.599  0.6093E+00  0.1539E+02
    -10.592  0.6072E+00  0.1540E+02
    -10.585  0.6050E+00  0.1540E+02
    -10.579  0.6029E+00  0.1541E+02
    -10.572  0.6008E+00  0.1541E+02
    -10.565  0.5986E+00  0.1542E+02
    -10.559  0.5965E+00  0.1542E+02
    -10.552  0.5943E+00  0.1542E+02
    -10.545  0.5922E+00  0.1543E+02
    -10.539  0.5901E+00  0.1543E+02
    -10.532  0.5879E+00  0.1543E+02
    -10.525  0.5858E+00  0.1544E+02
    -10.519  0.5836E+00  0.1544E+02
    -10.512  0.5815E+00  0.1545E+02
    -10.505  0.5794E+00  0.1545E+02
    -10.498  0.5772E+00  0.1545E+02
    -10.492  0.5751E+00  0.1546E+02
    -10.485  0.5729E+00  0.1546E+02
    -10.478  0.5708E+00  0.1547E+02
    -10.472  0.5687E+00  0.1547E+02
    -10.465  0.5665E+00  0.1547E+02
    -10.458  0.5644E+00  0.1548E+02
    -10.452  0.5622E+00  0.1548E+02
    -10.445  0.5601E+00  0.1548E+02
    -10.438  0.5580E+00  0.1549E+02
    -10.432  0.5558E+00  0.1549E+02
    -10.425  0.5537E+00  0.1550E+02
    -10.418  0.5515E+00  0.1550E+02
    -10.412  0.5494E+00  0.1550E+02
    -10.405  0.5473E+00  0.1551E+02
    -10.398  0.5451E+00  0.1551E+02
    -10.392  0.5430E+00  0.1551E+02
    -10.385  0.5408E+00  0.1552E+02
    -10.378  0.5387E+00  0.1552E+02
    -10.372  0.5522E+00  0.1552E+02
    -10.365  0.6761E+00  0.1553E+02
    -10.358  0.7999E+00  0.1553E+02
    -10.352  0.9237E+00  0.1554E+02
    -10.345  0.1048E+01  0.1555E+02
    -10.338  0.1171E+01  0.1555E+02
    -10.332  0.1295E+01  0.1556E+02
    -10.325  0.1419E+01  0.1557E+02
    -10.318  0.1543E+01  0.1558E+02
    -10.312  0.1667E+01  0.1559E+02
    -10.305  0.1791E+01  0.1560E+02
    -10.298  0.1915E+01  0.1562E+02
    -10.292  0.2038E+01  0.1563E+02
    -10.285  0.2162E+01  0.1564E+02
    -10.278  0.2286E+01  0.1566E+02
    -10.272  0.2410E+01  0.1567E+02
    -10.265  0.2534E+01  0.1569E+02
    -10.258  0.2658E+01  0.1571E+02
    -10.252  0.2781E+01  0.1572E+02
    -10.245  0.2905E+01  0.1574E+02
    -10.238  0.3029E+01  0.1576E+02
    -10.232  0.3153E+01  0.1578E+02
    -10.225  0.3277E+01  0.1581E+02
    -10.218  0.3401E+01  0.1583E+02
    -10.212  0.3525E+01  0.1585E+02
    -10.205  0.3648E+01  0.1588E+02
    -10.198  0.3772E+01  0.1590E+02
    -10.192  0.3896E+01  0.1593E+02
    -10.185  0.4020E+01  0.1595E+02
    -10.178  0.4144E+01  0.1598E+02
    -10.172  0.3669E+01  0.1600E+02
    -10.165  0.3710E+01  0.1603E+02
    -10.158  0.3751E+01  0.1605E+02
    -10.152  0.3792E+01  0.1608E+02
    -10.145  0.3833E+01  0.1610E+02
    -10.138  0.3874E+01  0.1613E+02
    -10.132  0.3915E+01  0.1616E+02
    -10.125  0.3956E+01  0.1618E+02
    -10.118  0.3997E+01  0.1621E+02
    -10.112  0.4038E+01  0.1624E+02
    -10.105  0.4080E+01  0.1626E+02
    -10.098  0.4121E+01  0.1629E+02
    -10.092  0.4162E+01  0.1632E+02
    -10.085  0.4203E+01  0.1635E+02
    -10.078  0.4244E+01  0.1637E+02
    -10.072  0.4285E+01  0.1640E+02
    -10.065  0.4326E+01  0.1643E+02
    -10.058  0.4367E+01  0.1646E+02
    -10.052  0.4408E+01  0.1649E+02
    -10.045  0.4449E+01  0.1652E+02
    -10.038  0.4491E+01  0.1655E+02
    -10.032  0.4532E+01  0.1658E+02
    -10.025  0.4573E+01  0.1661E+02
    -10.018  0.4614E+01  0.1664E+02
    -10.012  0.4655E+01  0.1667E+02
    -10.005  0.4696E+01  0.1670E+02
     -9.998  0.4737E+01  0.1673E+02
     -9.992  0.4778E+01  0.1677E+02
     -9.985  0.4819E+01  0.1680E+02
     -9.978  0.4860E+01  0.1683E+02
     -9.972  0.4901E+01  0.1686E+02
     -9.965  0.4943E+01  0.1689E+02
     -9.958  0.4984E+01  0.1693E+02
     -9.952  0.5025E+01  0.1696E+02
     -9.945  0.5066E+01  0.1700E+02
     -9.938  0.5107E+01  0.1703E+02
     -9.932  0.7528E+01  0.1707E+02
     -9.925  0.7463E+01  0.1712E+02
     -9.918  0.7399E+01  0.1716E+02
     -9.912  0.7334E+01  0.1721E+02
     -9.905  0.7270E+01  0.1726E+02
     -9.898  0.7206E+01  0.1731E+02
     -9.892  0.7141E+01  0.1736E+02
     -9.885  0.7077E+01  0.1741E+02
     -9.878  0.7012E+01  0.1745E+02
     -9.872  0.6948E+01  0.1750E+02
     -9.865  0.6884E+01  0.1755E+02
     -9.858  0.6819E+01  0.1759E+02
     -9.852  0.6755E+01  0.1764E+02
     -9.845  0.6690E+01  0.1768E+02
     -9.838  0.6626E+01  0.1773E+02
     -9.832  0.6562E+01  0.1777E+02
     -9.825  0.6497E+01  0.1781E+02
     -9.818  0.6433E+01  0.1786E+02
     -9.812  0.6369E+01  0.1790E+02
     -9.805  0.6304E+01  0.1794E+02
     -9.798  0.6240E+01  0.1798E+02
     -9.792  0.6175E+01  0.1802E+02
     -9.785  0.6111E+01  0.1807E+02
     -9.778  0.6047E+01  0.1811E+02
     -9.772  0.5982E+01  0.1815E+02
     -9.765  0.5918E+01  0.1819E+02
     -9.758  0.5853E+01  0.1823E+02
     -9.752  0.5789E+01  0.1826E+02
     -9.745  0.5725E+01  0.1830E+02
     -9.738  0.5660E+01  0.1834E+02
     -9.732  0.5596E+01  0.1838E+02
     -9.725  0.5531E+01  0.1841E+02
     -9.718  0.5467E+01  0.1845E+02
     -9.712  0.5403E+01  0.1849E+02
     -9.705  0.5338E+01  0.1852E+02
     -9.698  0.5274E+01  0.1856E+02
     -9.692  0.5209E+01  0.1859E+02
     -9.685  0.5145E+01  0.1863E+02
     -9.678  0.5081E+01  0.1866E+02
     -9.672  0.5016E+01  0.1870E+02
     -9.665  0.4952E+01  0.1873E+02
     -9.658  0.4887E+01  0.1876E+02
     -9.652  0.4823E+01  0.1879E+02
     -9.645  0.4759E+01  0.1883E+02
     -9.638  0.4694E+01  0.1886E+02
     -9.632  0.4630E+01  0.1889E+02
     -9.625  0.4565E+01  0.1892E+02
     -9.618  0.4501E+01  0.1895E+02
     -9.612  0.4437E+01  0.1898E+02
     -9.605  0.4372E+01  0.1901E+02
     -9.598  0.4308E+01  0.1904E+02
     -9.592  0.4243E+01  0.1907E+02
     -9.585  0.4179E+01  0.1909E+02
     -9.578  0.4115E+01  0.1912E+02
     -9.572  0.4050E+01  0.1915E+02
     -9.565  0.3986E+01  0.1918E+02
     -9.558  0.3921E+01  0.1920E+02
     -9.552  0.3857E+01  0.1923E+02
     -9.545  0.3793E+01  0.1925E+02
     -9.538  0.3728E+01  0.1928E+02
     -9.532  0.3664E+01  0.1930E+02
     -9.525  0.3599E+01  0.1933E+02
     -9.518  0.3535E+01  0.1935E+02
     -9.512  0.3471E+01  0.1938E+02
     -9.505  0.3406E+01  0.1940E+02
     -9.498  0.3342E+01  0.1942E+02