Automatically generated mesh
       4
Reciprocal lattice
    0.00000000000000    0.00000000000000    0.00000000000000             1
    0.25000000000000    0.00000000000000    0.00000000000000             6
    0.50000000000000    0.00000000000000    0.00000000000000             3
    0.25000000000000    0.25000000000000    0.00000000000000             6
Tetrahedra
        10    0.01041666666667
        12         2         2         2         4
        12         1         2         2         2
         6         1         1         2         2
         6         2         2         4         4
        12         3         4         4         4
        12         2         3         4         4
        12         2         2         3         4
         6         3         3         4         4
        12         2         3         3         4
         6         4         4         4         4
