 running on    2 total cores
 distrk:  each k-point on    2 cores,    1 groups
 distr:  one band on    1 cores,    2 groups
 using from now: INCAR     
 vasp.5.4.4.18Apr17-6-g9f103f2a35 (build May 21 2018 15:16:00) complex           
 POSCAR found type information on POSCAR  C 
 POSCAR found :  1 types and       8 ions
 scaLAPACK will be used
 LDA part: xc-table for Pade appr. of Perdew
 POSCAR, INCAR and KPOINTS ok, starting setup
 FFT: planning ...
 WAVECAR not read
 entering main loop
       N       E                     dE             d eps       ncg     rms          rms(c)
DAV:   1     0.181868856253E+03    0.18187E+03   -0.85702E+03   512   0.295E+02
DAV:   2    -0.584570770675E+02   -0.24033E+03   -0.21831E+03   728   0.105E+02
DAV:   3    -0.785915714957E+02   -0.20134E+02   -0.19833E+02   720   0.300E+01
DAV:   4    -0.789245048951E+02   -0.33293E+00   -0.33244E+00   672   0.480E+00
DAV:   5    -0.789311332218E+02   -0.66283E-02   -0.66260E-02   712   0.605E-01    0.127E+01
DAV:   6    -0.752991195274E+02    0.36320E+01   -0.19455E+00   632   0.333E+00    0.753E+00
DAV:   7    -0.738835364102E+02    0.14156E+01   -0.29544E+00   616   0.408E+00    0.201E+00
DAV:   8    -0.738593121926E+02    0.24224E-01   -0.15061E-01   584   0.767E-01    0.360E-01
DAV:   9    -0.738576294586E+02    0.16827E-02   -0.30371E-03   584   0.132E-01    0.206E-01
DAV:  10    -0.738476212474E+02    0.10008E-01   -0.50556E-03   608   0.153E-01    0.216E-01
DAV:  11    -0.738481196403E+02   -0.49839E-03   -0.95339E-04   600   0.593E-02    0.682E-02
DAV:  12    -0.738505330612E+02   -0.24134E-02   -0.43751E-04   552   0.422E-02    0.773E-02
DAV:  13    -0.738516659946E+02   -0.11329E-02   -0.26247E-05   592   0.128E-02    0.334E-02
DAV:  14    -0.738547148471E+02   -0.30489E-02   -0.29076E-04   528   0.237E-02    0.198E-02
DAV:  15    -0.738547951631E+02   -0.80316E-04   -0.20051E-06   584   0.291E-03    0.750E-03
DAV:  16    -0.738550150371E+02   -0.21987E-03   -0.98347E-06   512   0.511E-03    0.416E-03
DAV:  17    -0.738550386793E+02   -0.23642E-04   -0.61471E-07   536   0.173E-03    0.273E-03
DAV:  18    -0.738550521610E+02   -0.13482E-04   -0.38474E-07   520   0.137E-03    0.196E-03
DAV:  19    -0.738550639179E+02   -0.11757E-04   -0.70551E-08   488   0.551E-04    0.907E-04
DAV:  20    -0.738550653529E+02   -0.14350E-05   -0.87747E-09   512   0.260E-04    0.378E-04
DAV:  21    -0.738550666937E+02   -0.13407E-05   -0.51696E-09   456   0.188E-04    0.426E-05
DAV:  22    -0.738550668190E+02   -0.12530E-06   -0.34836E-10   520   0.651E-05
   1 F= -.73855067E+02 E0= -.73855067E+02  d E =0.000000E+00
 writing wavefunctions
