 vasp.5.4.4.18Apr17-6-g9f103f2a35 (build May 21 2018 15:16:00) complex           
 executed on GUN_wannier90_optcel date 2019.03.25  13:22:18
 running on    2 total cores
 distrk:  each k-point on    2 cores,    1 groups
 distr:  one band on NCORES_PER_BAND=   1 cores,    2 groups


--------------------------------------------------------------------------------------------------------


 INCAR:
 POTCAR:    PAW_PBE C 08Apr2002                   
 POTCAR:    PAW_PBE C 08Apr2002                   
  local pseudopotential read in
  partial core-charges read in
  partial kinetic energy density read in
  atomic valenz-charges read in
  non local Contribution for L=           0  read in
    real space projection operators read in
  non local Contribution for L=           0  read in
    real space projection operators read in
  non local Contribution for L=           1  read in
    real space projection operators read in
  non local Contribution for L=           1  read in
    real space projection operators read in
    PAW grid and wavefunctions read in

   number of l-projection  operators is LMAX  =           4
   number of lm-projection operators is LMMAX =           8

  PAW_PBE C 08Apr2002                   :
 energy of atom  1       EATOM= -147.1560
 kinetic energy error for atom=    0.0288 (will be added to EATOM!!)


 POSCAR: generated by phonopy                    
  positions in direct lattice
  No initial velocities read in
 exchange correlation table for  LEXCH =        8
   RHO(1)=    0.500       N(1)  =     2000
   RHO(2)=  100.500       N(2)  =     4000



--------------------------------------------------------------------------------------------------------


 ion  position               nearest neighbor table
   1  0.333  0.167  0.500-   5 1.42   7 1.42   6 1.42
   2  0.833  0.167  0.500-   6 1.42   8 1.42   5 1.42
   3  0.333  0.667  0.500-   7 1.42   5 1.42   8 1.42
   4  0.833  0.667  0.500-   8 1.42   6 1.42   7 1.42
   5  0.167  0.333  0.500-   1 1.42   3 1.42   2 1.42
   6  0.667  0.333  0.500-   2 1.42   4 1.42   1 1.42
   7  0.167  0.833  0.500-   3 1.42   1 1.42   4 1.42
   8  0.667  0.833  0.500-   4 1.42   2 1.42   3 1.42

  LATTYP: Found a hexagonal cell.
 ALAT       =     4.9294165983
 C/A-ratio  =     4.0572752578
  
  Lattice vectors:
  
 A1 = (   4.9294165983,   0.0000000000,   0.0000000000)
 A2 = (  -2.4647082992,   4.2690000000,   0.0000000000)
 A3 = (   0.0000000000,   0.0000000000,  20.0000000000)


Analysis of symmetry for initial positions (statically):
=====================================================================
 Subroutine PRICEL returns following result:
 
  LATTYP: Found a hexagonal cell.
 ALAT       =     2.4647082992
 C/A-ratio  =     8.1145505157
  
  Lattice vectors:
  
 A1 = (   2.4647082992,   0.0000000000,   0.0000000000)
 A2 = (  -1.2323541496,   2.1345000000,   0.0000000000)
 A3 = (   0.0000000000,   0.0000000000,  20.0000000000)
 
   4 primitive cells build up your supercell.
 

 Routine SETGRP: Setting up the symmetry group for a 
 hexagonal supercell.


 Subroutine GETGRP returns: Found 24 space group operations
 (whereof 24 operations were pure point group operations)
 out of a pool of 24 trial point group operations.


The static configuration has the point symmetry D_6h.


Analysis of symmetry for dynamics (positions and initial velocities):
=====================================================================
 Subroutine PRICEL returns following result:
 
  LATTYP: Found a hexagonal cell.
 ALAT       =     2.4647082992
 C/A-ratio  =     8.1145505157
  
  Lattice vectors:
  
 A1 = (   2.4647082992,   0.0000000000,   0.0000000000)
 A2 = (  -1.2323541496,   2.1345000000,   0.0000000000)
 A3 = (   0.0000000000,   0.0000000000,  20.0000000000)
 
   4 primitive cells build up your supercell.
 

 Routine SETGRP: Setting up the symmetry group for a 
 hexagonal supercell.


 Subroutine GETGRP returns: Found 24 space group operations
 (whereof 24 operations were pure point group operations)
 out of a pool of 24 trial point group operations.


The dynamic configuration has the point symmetry D_6h.


 Subroutine INISYM returns: Found 24 space group operations
 (whereof 24 operations are pure point group operations),
 and found     4 'primitive' translations



 KPOINTS: K-point                                 

Automatic generation of k-mesh.
Space group operators:
 irot       det(A)        alpha          n_x          n_y          n_z        tau_x        tau_y        tau_z
    1     1.000000     0.000000     1.000000     0.000000     0.000000     0.000000     0.000000     0.000000
    2    -1.000000     0.000000     1.000000     0.000000     0.000000     0.000000     0.000000     0.000000
    3     1.000000    60.000000     0.000000     0.000000    -1.000000     0.000000     0.000000     0.000000
    4    -1.000000    60.000000     0.000000     0.000000    -1.000000     0.000000     0.000000     0.000000
    5     1.000000   120.000000     0.000000     0.000000    -1.000000     0.000000     0.000000     0.000000
    6    -1.000000   120.000000     0.000000     0.000000    -1.000000     0.000000     0.000000     0.000000
    7     1.000000   180.000000     0.000000     0.000000     1.000000     0.000000     0.000000     0.000000
    8    -1.000000   180.000000     0.000000     0.000000     1.000000     0.000000     0.000000     0.000000
    9     1.000000   120.000000     0.000000     0.000000     1.000000     0.000000     0.000000     0.000000
   10    -1.000000   120.000000     0.000000     0.000000     1.000000     0.000000     0.000000     0.000000
   11     1.000000    60.000000     0.000000     0.000000     1.000000     0.000000     0.000000     0.000000
   12    -1.000000    60.000000     0.000000     0.000000     1.000000     0.000000     0.000000     0.000000
   13     1.000000   180.000000     1.000000    -0.000000     0.000000     0.000000     0.000000     0.000000
   14    -1.000000   180.000000     1.000000    -0.000000     0.000000     0.000000     0.000000     0.000000
   15     1.000000   180.000000     0.866025    -0.500000     0.000000     0.000000     0.000000     0.000000
   16    -1.000000   180.000000     0.866025    -0.500000     0.000000     0.000000     0.000000     0.000000
   17     1.000000   180.000000     0.500000    -0.866025     0.000000     0.000000     0.000000     0.000000
   18    -1.000000   180.000000     0.500000    -0.866025     0.000000     0.000000     0.000000     0.000000
   19     1.000000   180.000000     0.000000     1.000000     0.000000     0.000000     0.000000     0.000000
   20    -1.000000   180.000000     0.000000     1.000000     0.000000     0.000000     0.000000     0.000000
   21     1.000000   180.000000    -0.500000    -0.866025     0.000000     0.000000     0.000000     0.000000
   22    -1.000000   180.000000    -0.500000    -0.866025     0.000000     0.000000     0.000000     0.000000
   23     1.000000   180.000000     0.866025     0.500000     0.000000     0.000000     0.000000     0.000000
   24    -1.000000   180.000000     0.866025     0.500000     0.000000     0.000000     0.000000     0.000000
 
 Subroutine IBZKPT returns following result:
 ===========================================
 
 Found      4 irreducible k-points:
 
 Following reciprocal coordinates:
            Coordinates               Weight
  0.000000  0.000000  0.000000      1.000000
  0.250000  0.000000  0.000000      6.000000
  0.500000  0.000000  0.000000      3.000000
  0.250000  0.250000  0.000000      6.000000
 
 Following cartesian coordinates:
            Coordinates               Weight
  0.000000  0.000000  0.000000      1.000000
  0.050716  0.029281  0.000000      6.000000
  0.101432  0.058562  0.000000      3.000000
  0.050716  0.087843  0.000000      6.000000
 
 TETIRR: Found     10 inequivalent tetrahedra from       96


--------------------------------------------------------------------------------------------------------




 Dimension of arrays:
   k-points           NKPTS =      4   k-points in BZ     NKDIM =      4   number of bands    NBANDS=     64
   number of dos      NEDOS =   3000   number of ions     NIONS =      8
   non local maximal  LDIM  =      4   non local SUM 2l+1 LMDIM =      8
   total plane-waves  NPLWV = 143360
   max r-space proj   IRMAX =      1   max aug-charges    IRDMAX=   4219
   dimension x,y,z NGX =    32 NGY =   32 NGZ =  140
   dimension x,y,z NGXF=    64 NGYF=   64 NGZF=  280
   support grid    NGXF=    64 NGYF=   64 NGZF=  280
   ions per type =               8
   NGX,Y,Z   is equivalent  to a cutoff of  10.79, 10.79, 11.64 a.u.
   NGXF,Y,Z  is equivalent  to a cutoff of  21.58, 21.58, 23.27 a.u.

 SYSTEM =  C                                       
 POSCAR =  generated by phonopy                    

 Startparameter for this run:
   NWRITE =      1    write-flag & timer
   PREC   = a         normal or accurate (medium, high low for compatibility)
   ISTART =      0    job   : 0-new  1-cont  2-samecut
   ICHARG =      2    charge: 1-file 2-atom 10-const
   ISPIN  =      1    spin polarized calculation?
   LNONCOLLINEAR =      F non collinear calculations
   LSORBIT =      F    spin-orbit coupling
   INIWAV =      1    electr: 0-lowe 1-rand  2-diag
   LASPH  =      F    aspherical Exc in radial PAW
   METAGGA=      F    non-selfconsistent MetaGGA calc.

 Electronic Relaxation 1
   ENCUT  =  400.0 eV  29.40 Ry    5.42 a.u.   8.04  8.04 32.61*2*pi/ulx,y,z
   ENINI  =  400.0     initial cutoff
   ENAUG  =  644.9 eV  augmentation charge cutoff
   NELM   =   2000;   NELMIN=  5; NELMDL= -5     # of ELM steps 
   EDIFF  = 0.1E-05   stopping-criterion for ELM
   LREAL  =      F    real-space projection
   NLSPLINE    = F    spline interpolate recip. space projectors
   LCOMPAT=      F    compatible to vasp.4.4
   GGA_COMPAT  = T    GGA compatible to vasp.4.4-vasp.4.6
   LMAXPAW     = -100 max onsite density
   LMAXMIX     =    2 max onsite mixed and CHGCAR
   VOSKOWN=      0    Vosko Wilk Nusair interpolation
   ROPT   =    0.00000
 Ionic relaxation
   EDIFFG = -.1E-01   stopping-criterion for IOM
   NSW    =      0    number of steps for IOM
   NBLOCK =      1;   KBLOCK =      1    inner block; outer block 
   IBRION =     -1    ionic relax: 0-MD 1-quasi-New 2-CG
   NFREE  =      0    steps in history (QN), initial steepest desc. (CG)
   ISIF   =      2    stress and relaxation
   IWAVPR =     10    prediction:  0-non 1-charg 2-wave 3-comb
   ISYM   =      2    0-nonsym 1-usesym 2-fastsym
   LCORR  =      T    Harris-Foulkes like correction to forces

   POTIM  = 0.5000    time-step for ionic-motion
   TEIN   =    0.0    initial temperature
   TEBEG  =    0.0;   TEEND  =   0.0 temperature during run
   SMASS  =  -3.00    Nose mass-parameter (am)
   estimated Nose-frequenzy (Omega)   =  0.10E-29 period in steps =****** mass=  -0.555E-27a.u.
   SCALEE = 1.0000    scale energy and forces
   NPACO  =    256;   APACO  = 16.0  distance and # of slots for P.C.
   PSTRESS=    0.0 pullay stress

  Mass of Ions in am
   POMASS =  12.01
  Ionic Valenz
   ZVAL   =   4.00
  Atomic Wigner-Seitz radii
   RWIGS  =  -1.00
  virtual crystal weights 
   VCA    =   1.00
   NELECT =      32.0000    total number of electrons
   NUPDOWN=      -1.0000    fix difference up-down

 DOS related values:
   EMIN   = -15.00;   EMAX   =  5.00  energy-range for DOS
   EFERMI =   0.00
   ISMEAR =    -5;   SIGMA  =   0.20  broadening in eV -4-tet -1-fermi 0-gaus

 Electronic relaxation 2 (details)
   IALGO  =     38    algorithm
   LDIAG  =      T    sub-space diagonalisation (order eigenvalues)
   LSUBROT=      F    optimize rotation matrix (better conditioning)
   TURBO    =      0    0=normal 1=particle mesh
   IRESTART =      0    0=no restart 2=restart with 2 vectors
   NREBOOT  =      0    no. of reboots
   NMIN     =      0    reboot dimension
   EREF     =   0.00    reference energy to select bands
   IMIX   =      4    mixing-type and parameters
     AMIX     =   0.40;   BMIX     =  1.00
     AMIX_MAG =   1.60;   BMIX_MAG =  1.00
     AMIN     =   0.10
     WC   =   100.;   INIMIX=   1;  MIXPRE=   1;  MAXMIX= -45

 Intra band minimization:
   WEIMIN = 0.0000     energy-eigenvalue tresh-hold
   EBREAK =  0.39E-08  absolut break condition
   DEPER  =   0.30     relativ break condition  

   TIME   =   0.40     timestep for ELM

  volume/ion in A,a.u.               =      52.61       355.02
  Fermi-wavevector in a.u.,A,eV,Ry     =   0.693544  1.310609  6.544454  0.481004
  Thomas-Fermi vector in A             =   1.775788

 Write flags
   LWAVE        =      T    write WAVECAR
   LDOWNSAMPLE  =      F    k-point downsampling of WAVECAR
   LCHARG       =      T    write CHGCAR
   LVTOT        =      F    write LOCPOT, total local potential
   LVHAR        =      F    write LOCPOT, Hartree potential only
   LELF         =      F    write electronic localiz. function (ELF)
   LORBIT       =     11    0 simple, 1 ext, 2 COOP (PROOUT), +10 PAW based schemes


 Dipole corrections
   LMONO  =      F    monopole corrections only (constant potential shift)
   LDIPOL =      F    correct potential (dipole corrections)
   IDIPOL =      0    1-x, 2-y, 3-z, 4-all directions 
   EPSILON=  1.0000000 bulk dielectric constant

 Exchange correlation treatment:
   GGA     =    --    GGA type
   LEXCH   =     8    internal setting for exchange type
   VOSKOWN=      0    Vosko Wilk Nusair interpolation
   LHFCALC =     F    Hartree Fock is set to
   LHFONE  =     F    Hartree Fock one center treatment
   AEXX    =    0.0000 exact exchange contribution

 Linear response parameters
   LEPSILON=     F    determine dielectric tensor
   LRPA    =     F    only Hartree local field effects (RPA)
   LNABLA  =     F    use nabla operator in PAW spheres
   LVEL    =     F    velocity operator in full k-point grid
   LINTERFAST=   F  fast interpolation
   KINTER  =     0    interpolate to denser k-point grid
   CSHIFT  =0.1000    complex shift for real part using Kramers Kronig
   OMEGAMAX=  -1.0    maximum frequency
   DEG_THRESHOLD= 0.2000000E-02 threshold for treating states as degnerate
   RTIME   =   -0.100 relaxation time in fs
  (WPLASMAI=    0.000 imaginary part of plasma frequency in eV, 0.658/RTIME)
   DFIELD  = 0.0000000 0.0000000 0.0000000 field for delta impulse in time

 Orbital magnetization related:
   ORBITALMAG=     F  switch on orbital magnetization
   LCHIMAG   =     F  perturbation theory with respect to B field
   DQ        =  0.001000  dq finite difference perturbation B field
   LLRAUG    =     F  two centre corrections for induced B field



--------------------------------------------------------------------------------------------------------


 Static calculation
 charge density and potential will be updated during run
 non-spin polarized calculation
 Variant of blocked Davidson
 Davidson routine will perform the subspace rotation
 perform sub-space diagonalisation
    after iterative eigenvector-optimisation
 modified Broyden-mixing scheme, WC =      100.0
 initial mixing is a Kerker type mixing with AMIX =  0.4000 and BMIX =      1.0000
 Hartree-type preconditioning will be used
 using additional bands           48
 reciprocal scheme for non local part
 use partial core corrections
 calculate Harris-corrections to forces   (improved forces if not selfconsistent)
 use gradient corrections 
 use of overlap-Matrix (Vanderbilt PP)
 Fermi weights with tetrahedron method with Bloechl corrections


--------------------------------------------------------------------------------------------------------


  energy-cutoff  :      400.00
  volume of cell :      420.87
      direct lattice vectors                 reciprocal lattice vectors
     4.929416598  0.000000000  0.000000000     0.202863763  0.117123448 -0.000000000
    -2.464708299  4.269000000  0.000000000     0.000000000  0.234246896  0.000000000
     0.000000000  0.000000000 20.000000000     0.000000000 -0.000000000  0.050000000

  length of vectors
     4.929416598  4.929416598 20.000000000     0.234246896  0.234246896  0.050000000



 k-points in units of 2pi/SCALE and weight: K-point                                 
   0.00000000  0.00000000  0.00000000       0.062
   0.05071594  0.02928086  0.00000000       0.375
   0.10143188  0.05856172  0.00000000       0.188
   0.05071594  0.08784259  0.00000000       0.375

 k-points in reciprocal lattice and weights: K-point                                 
   0.00000000  0.00000000  0.00000000       0.062
   0.25000000  0.00000000  0.00000000       0.375
   0.50000000  0.00000000  0.00000000       0.188
   0.25000000  0.25000000  0.00000000       0.375

 position of ions in fractional coordinates (direct lattice) 
   0.33333333  0.16666667  0.50000000
   0.83333333  0.16666667  0.50000000
   0.33333333  0.66666667  0.50000000
   0.83333333  0.66666667  0.50000000
   0.16666667  0.33333333  0.50000000
   0.66666667  0.33333333  0.50000000
   0.16666667  0.83333333  0.50000000
   0.66666667  0.83333333  0.50000000

 position of ions in cartesian coordinates  (Angst):
   1.23235415  0.71150000 10.00000000
   3.69706245  0.71150000 10.00000000
  -0.00000000  2.84600000 10.00000000
   2.46470830  2.84600000 10.00000000
   0.00000000  1.42300000 10.00000000
   2.46470830  1.42300000 10.00000000
  -1.23235415  3.55750000 10.00000000
   1.23235415  3.55750000 10.00000000



--------------------------------------------------------------------------------------------------------


 k-point  1 :   0.0000 0.0000 0.0000  plane waves:    7541
 k-point  2 :   0.2500 0.0000 0.0000  plane waves:    7620
 k-point  3 :   0.5000 0.0000 0.0000  plane waves:    7690
 k-point  4 :   0.2500 0.2500 0.0000  plane waves:    7660

 maximum and minimum number of plane-waves per node :      7690     7541

 maximum number of plane-waves:      7690
 maximum index in each direction: 
   IXMAX=    8   IYMAX=    8   IZMAX=   32
   IXMIN=   -8   IYMIN=   -8   IZMIN=  -32


 serial   3D FFT for wavefunctions
 parallel 3D FFT for charge:
    minimum data exchange during FFTs selected (reduces bandwidth)


 total amount of memory used by VASP MPI-rank0   102193. kBytes
=======================================================================

   base      :      30000. kBytes
   nonl-proj :       2952. kBytes
   fftplans  :      19931. kBytes
   grid      :      33406. kBytes
   one-center:         24. kBytes
   wavefun   :      15880. kBytes

     INWAV:  cpu time    0.0000: real time    0.0000
 Broyden mixing: mesh for mixing (old mesh)
   NGX = 17   NGY = 17   NGZ = 65
  (NGX  = 64   NGY  = 64   NGZ  =280)
  gives a total of  18785 points

 initial charge density was supplied:
 charge density of overlapping atoms calculated
 number of electron      32.0000000 magnetization 
 keeping initial charge density in first step


--------------------------------------------------------------------------------------------------------


 Maximum index for augmentation-charges         1956 (set IRDMAX)


--------------------------------------------------------------------------------------------------------


 First call to EWALD:  gamma=   0.237
 Maximum number of real-space cells 4x 4x 1
 Maximum number of reciprocal cells 2x 2x 7

    FEWALD:  cpu time    0.0019: real time    0.0019


--------------------------------------- Iteration      1(   1)  ---------------------------------------


    POTLOK:  cpu time    0.3792: real time    0.3848
    SETDIJ:  cpu time    0.0059: real time    0.0078
     EDDAV:  cpu time    4.0545: real time    4.4008
 BZINTS: Fermi energy:  3.467332; 32.000000 electrons
         Band energy:-258.422974;  BLOECHL correction: -0.124449
       DOS:  cpu time    0.0020: real time    0.0020
    --------------------------------------------
      LOOP:  cpu time    4.4416: real time    4.7955

 eigenvalue-minimisations  :   512
 total energy-change (2. order) : 0.1818689E+03  (-0.8570240E+03)
 number of electron      32.0000000 magnetization 
 augmentation part       32.0000000 magnetization 

 Free energy of the ion-electron system (eV)
  ---------------------------------------------------
  alpha Z        PSCENC =        12.49161259
  Ewald energy   TEWEN  =      5185.64168854
  -Hartree energ DENC   =     -6035.77136571
  -exchange      EXHF   =         0.00000000
  -V(xc)+E(xc)   XCENC  =       105.46735052
  PAW double counting   =       868.17637104     -872.73161751
  entropy T*S    EENTRO =         0.00000000
  eigenvalues    EBANDS =      -258.42297418
  atomic energy  EATOM  =      1177.01779097
  Solvation  Ediel_sol  =         0.00000000
  ---------------------------------------------------
  free energy    TOTEN  =       181.86885625 eV

  energy without entropy =      181.86885625  energy(sigma->0) =      181.86885625


--------------------------------------------------------------------------------------------------------




--------------------------------------- Iteration      1(   2)  ---------------------------------------


     EDDAV:  cpu time    4.5122: real time    4.6556
 BZINTS: Fermi energy: -6.400467; 32.000000 electrons
         Band energy:-498.748908;  BLOECHL correction:  0.000000
       DOS:  cpu time    0.0014: real time    0.0014
    --------------------------------------------
      LOOP:  cpu time    4.5136: real time    4.6570

 eigenvalue-minimisations  :   728
 total energy-change (2. order) :-0.2403259E+03  (-0.2183074E+03)
 number of electron      32.0000000 magnetization 
 augmentation part       32.0000000 magnetization 

 Free energy of the ion-electron system (eV)
  ---------------------------------------------------
  alpha Z        PSCENC =        12.49161259
  Ewald energy   TEWEN  =      5185.64168854
  -Hartree energ DENC   =     -6035.77136571
  -exchange      EXHF   =         0.00000000
  -V(xc)+E(xc)   XCENC  =       105.46735052
  PAW double counting   =       868.17637104     -872.73161751
  entropy T*S    EENTRO =         0.00000000
  eigenvalues    EBANDS =      -498.74890750
  atomic energy  EATOM  =      1177.01779097
  Solvation  Ediel_sol  =         0.00000000
  ---------------------------------------------------
  free energy    TOTEN  =       -58.45707707 eV

  energy without entropy =      -58.45707707  energy(sigma->0) =      -58.45707707


--------------------------------------------------------------------------------------------------------




--------------------------------------- Iteration      1(   3)  ---------------------------------------


     EDDAV:  cpu time    4.7034: real time    4.8577
 BZINTS: Fermi energy: -7.309103; 32.000000 electrons
         Band energy:-518.883402;  BLOECHL correction:  0.000000
       DOS:  cpu time    0.0008: real time    0.0008
    --------------------------------------------
      LOOP:  cpu time    4.7043: real time    4.8586

 eigenvalue-minimisations  :   720
 total energy-change (2. order) :-0.2013449E+02  (-0.1983288E+02)
 number of electron      32.0000000 magnetization 
 augmentation part       32.0000000 magnetization 

 Free energy of the ion-electron system (eV)
  ---------------------------------------------------
  alpha Z        PSCENC =        12.49161259
  Ewald energy   TEWEN  =      5185.64168854
  -Hartree energ DENC   =     -6035.77136571
  -exchange      EXHF   =         0.00000000
  -V(xc)+E(xc)   XCENC  =       105.46735052
  PAW double counting   =       868.17637104     -872.73161751
  entropy T*S    EENTRO =         0.00000000
  eigenvalues    EBANDS =      -518.88340193
  atomic energy  EATOM  =      1177.01779097
  Solvation  Ediel_sol  =         0.00000000
  ---------------------------------------------------
  free energy    TOTEN  =       -78.59157150 eV

  energy without entropy =      -78.59157150  energy(sigma->0) =      -78.59157150


--------------------------------------------------------------------------------------------------------




--------------------------------------- Iteration      1(   4)  ---------------------------------------


     EDDAV:  cpu time    4.4248: real time    4.5799
 BZINTS: Fermi energy: -7.329110; 32.000000 electrons
         Band energy:-519.216335;  BLOECHL correction:  0.000000
       DOS:  cpu time    0.0005: real time    0.0005
    --------------------------------------------
      LOOP:  cpu time    4.4254: real time    4.5805

 eigenvalue-minimisations  :   672
 total energy-change (2. order) :-0.3329334E+00  (-0.3324403E+00)
 number of electron      32.0000000 magnetization 
 augmentation part       32.0000000 magnetization 

 Free energy of the ion-electron system (eV)
  ---------------------------------------------------
  alpha Z        PSCENC =        12.49161259
  Ewald energy   TEWEN  =      5185.64168854
  -Hartree energ DENC   =     -6035.77136571
  -exchange      EXHF   =         0.00000000
  -V(xc)+E(xc)   XCENC  =       105.46735052
  PAW double counting   =       868.17637104     -872.73161751
  entropy T*S    EENTRO =         0.00000000
  eigenvalues    EBANDS =      -519.21633533
  atomic energy  EATOM  =      1177.01779097
  Solvation  Ediel_sol  =         0.00000000
  ---------------------------------------------------
  free energy    TOTEN  =       -78.92450490 eV

  energy without entropy =      -78.92450490  energy(sigma->0) =      -78.92450490


--------------------------------------------------------------------------------------------------------




--------------------------------------- Iteration      1(   5)  ---------------------------------------


     EDDAV:  cpu time    4.9932: real time    5.2237
 BZINTS: Fermi energy: -7.329110; 32.000000 electrons
         Band energy:-519.222964;  BLOECHL correction:  0.000000
       DOS:  cpu time    0.0006: real time    0.0006
    CHARGE:  cpu time    0.2008: real time    0.2087
    MIXING:  cpu time    0.0160: real time    0.0161
    --------------------------------------------
      LOOP:  cpu time    5.2106: real time    5.4490

 eigenvalue-minimisations  :   712
 total energy-change (2. order) :-0.6628327E-02  (-0.6626014E-02)
 number of electron      31.9999992 magnetization 
 augmentation part        0.8466717 magnetization 

 Broyden mixing:
  rms(total) = 0.12716E+01    rms(broyden)= 0.12715E+01
  rms(prec ) = 0.13583E+01
  weight for this iteration     100.00

 Free energy of the ion-electron system (eV)
  ---------------------------------------------------
  alpha Z        PSCENC =        12.49161259
  Ewald energy   TEWEN  =      5185.64168854
  -Hartree energ DENC   =     -6035.77136571
  -exchange      EXHF   =         0.00000000
  -V(xc)+E(xc)   XCENC  =       105.46735052
  PAW double counting   =       868.17637104     -872.73161751
  entropy T*S    EENTRO =         0.00000000
  eigenvalues    EBANDS =      -519.22296365
  atomic energy  EATOM  =      1177.01779097
  Solvation  Ediel_sol  =         0.00000000
  ---------------------------------------------------
  free energy    TOTEN  =       -78.93113322 eV

  energy without entropy =      -78.93113322  energy(sigma->0) =      -78.93113322


--------------------------------------------------------------------------------------------------------




--------------------------------------- Iteration      1(   6)  ---------------------------------------


    POTLOK:  cpu time    0.2342: real time    0.2356
    SETDIJ:  cpu time    0.0056: real time    0.0057
     EDDAV:  cpu time    4.8102: real time    5.3237
 BZINTS: Fermi energy: -6.193731; 32.000000 electrons
         Band energy:-472.277210;  BLOECHL correction:  0.000000
       DOS:  cpu time    0.0008: real time    0.0008
    CHARGE:  cpu time    0.1412: real time    0.1429
    MIXING:  cpu time    0.0128: real time    0.0225
    --------------------------------------------
      LOOP:  cpu time    5.2049: real time    5.7312

 eigenvalue-minimisations  :   632
 total energy-change (2. order) : 0.3632014E+01  (-0.1945515E+00)
 number of electron      31.9999992 magnetization 
 augmentation part        0.8122819 magnetization 

 Broyden mixing:
  rms(total) = 0.75301E+00    rms(broyden)= 0.75297E+00
  rms(prec ) = 0.79669E+00
  weight for this iteration     100.00

 eigenvalues of (default mixing * dielectric matrix)
  average eigenvalue GAMMA=   2.2423
  2.2423

 Free energy of the ion-electron system (eV)
  ---------------------------------------------------
  alpha Z        PSCENC =        12.49161259
  Ewald energy   TEWEN  =      5185.64168854
  -Hartree energ DENC   =     -6080.43028222
  -exchange      EXHF   =         0.00000000
  -V(xc)+E(xc)   XCENC  =       107.38217094
  PAW double counting   =      1619.21567463    -1624.34056469
  entropy T*S    EENTRO =         0.00000000
  eigenvalues    EBANDS =      -472.27721028
  atomic energy  EATOM  =      1177.01779097
  Solvation  Ediel_sol  =         0.00000000
  ---------------------------------------------------
  free energy    TOTEN  =       -75.29911953 eV

  energy without entropy =      -75.29911953  energy(sigma->0) =      -75.29911953


--------------------------------------------------------------------------------------------------------




--------------------------------------- Iteration      1(   7)  ---------------------------------------


    POTLOK:  cpu time    0.2704: real time    0.2746
    SETDIJ:  cpu time    0.0054: real time    0.0054
     EDDAV:  cpu time    4.5683: real time    4.9488
 BZINTS: Fermi energy: -4.719907; 32.000000 electrons
         Band energy:-411.589818;  BLOECHL correction:  0.000000
       DOS:  cpu time    0.0008: real time    0.0008
    CHARGE:  cpu time    0.1159: real time    0.1204
    MIXING:  cpu time    0.0086: real time    0.0108
    --------------------------------------------
      LOOP:  cpu time    4.9694: real time    5.3608

 eigenvalue-minimisations  :   616
 total energy-change (2. order) : 0.1415583E+01  (-0.2954400E+00)
 number of electron      31.9999993 magnetization 
 augmentation part        0.7710306 magnetization 

 Broyden mixing:
  rms(total) = 0.20148E+00    rms(broyden)= 0.20128E+00
  rms(prec ) = 0.20854E+00
  weight for this iteration     100.00

 eigenvalues of (default mixing * dielectric matrix)
  average eigenvalue GAMMA=   2.3824
  2.3824  2.3824

 Free energy of the ion-electron system (eV)
  ---------------------------------------------------
  alpha Z        PSCENC =        12.49161259
  Ewald energy   TEWEN  =      5185.64168854
  -Hartree energ DENC   =     -6141.78464833
  -exchange      EXHF   =         0.00000000
  -V(xc)+E(xc)   XCENC  =       109.99638254
  PAW double counting   =      3109.83114745    -3115.48769263
  entropy T*S    EENTRO =         0.00000000
  eigenvalues    EBANDS =      -411.58981754
  atomic energy  EATOM  =      1177.01779097
  Solvation  Ediel_sol  =         0.00000000
  ---------------------------------------------------
  free energy    TOTEN  =       -73.88353641 eV

  energy without entropy =      -73.88353641  energy(sigma->0) =      -73.88353641


--------------------------------------------------------------------------------------------------------




--------------------------------------- Iteration      1(   8)  ---------------------------------------


    POTLOK:  cpu time    0.2742: real time    0.3173
    SETDIJ:  cpu time    0.0061: real time    0.0061
     EDDAV:  cpu time    4.5769: real time    4.9159
 BZINTS: Fermi energy: -4.461487; 32.000000 electrons
         Band energy:-403.636947;  BLOECHL correction:  0.000000
       DOS:  cpu time    0.0006: real time    0.0006
    CHARGE:  cpu time    0.1184: real time    0.1190
    MIXING:  cpu time    0.0095: real time    0.0169
    --------------------------------------------
      LOOP:  cpu time    4.9857: real time    5.3759

 eigenvalue-minimisations  :   584
 total energy-change (2. order) : 0.2422422E-01  (-0.1506077E-01)
 number of electron      31.9999993 magnetization 
 augmentation part        0.7657208 magnetization 

 Broyden mixing:
  rms(total) = 0.36010E-01    rms(broyden)= 0.35979E-01
  rms(prec ) = 0.46831E-01
  weight for this iteration     100.00

 eigenvalues of (default mixing * dielectric matrix)
  average eigenvalue GAMMA=   1.7731
  2.2714  2.2714  0.7765

 Free energy of the ion-electron system (eV)
  ---------------------------------------------------
  alpha Z        PSCENC =        12.49161259
  Ewald energy   TEWEN  =      5185.64168854
  -Hartree energ DENC   =     -6149.93786285
  -exchange      EXHF   =         0.00000000
  -V(xc)+E(xc)   XCENC  =       109.97346289
  PAW double counting   =      3501.65293633    -3507.06199345
  entropy T*S    EENTRO =         0.00000000
  eigenvalues    EBANDS =      -403.63694721
  atomic energy  EATOM  =      1177.01779097
  Solvation  Ediel_sol  =         0.00000000
  ---------------------------------------------------
  free energy    TOTEN  =       -73.85931219 eV

  energy without entropy =      -73.85931219  energy(sigma->0) =      -73.85931219


--------------------------------------------------------------------------------------------------------




--------------------------------------- Iteration      1(   9)  ---------------------------------------


    POTLOK:  cpu time    0.2718: real time    0.2790
    SETDIJ:  cpu time    0.0040: real time    0.0041
     EDDAV:  cpu time    4.9476: real time    5.6520
 BZINTS: Fermi energy: -4.406469; 32.000000 electrons
         Band energy:-401.623107;  BLOECHL correction:  0.000000
       DOS:  cpu time    0.0005: real time    0.0005
    CHARGE:  cpu time    0.1170: real time    0.1186
    MIXING:  cpu time    0.0126: real time    0.0131
    --------------------------------------------
      LOOP:  cpu time    5.3534: real time    6.0670

 eigenvalue-minimisations  :   584
 total energy-change (2. order) : 0.1682734E-02  (-0.3037116E-03)
 number of electron      31.9999993 magnetization 
 augmentation part        0.7649600 magnetization 

 Broyden mixing:
  rms(total) = 0.20621E-01    rms(broyden)= 0.20618E-01
  rms(prec ) = 0.34162E-01
  weight for this iteration     100.00

 eigenvalues of (default mixing * dielectric matrix)
  average eigenvalue GAMMA=   2.2346
  1.0847  2.9482  2.9482  1.9573

 Free energy of the ion-electron system (eV)
  ---------------------------------------------------
  alpha Z        PSCENC =        12.49161259
  Ewald energy   TEWEN  =      5185.64168854
  -Hartree energ DENC   =     -6151.97840029
  -exchange      EXHF   =         0.00000000
  -V(xc)+E(xc)   XCENC  =       110.02084672
  PAW double counting   =      3467.83372041    -3473.26178120
  entropy T*S    EENTRO =         0.00000000
  eigenvalues    EBANDS =      -401.62310720
  atomic energy  EATOM  =      1177.01779097
  Solvation  Ediel_sol  =         0.00000000
  ---------------------------------------------------
  free energy    TOTEN  =       -73.85762946 eV

  energy without entropy =      -73.85762946  energy(sigma->0) =      -73.85762946


--------------------------------------------------------------------------------------------------------




--------------------------------------- Iteration      1(  10)  ---------------------------------------


    POTLOK:  cpu time    0.2490: real time    0.2502
    SETDIJ:  cpu time    0.0040: real time    0.0040
     EDDAV:  cpu time    4.2488: real time    4.4516
 BZINTS: Fermi energy: -3.987996; 32.000000 electrons
         Band energy:-387.813010;  BLOECHL correction:  0.000000
       DOS:  cpu time    0.0005: real time    0.0005
    CHARGE:  cpu time    0.1190: real time    0.1207
    MIXING:  cpu time    0.0142: real time    0.0147
    --------------------------------------------
      LOOP:  cpu time    4.6354: real time    4.8417

 eigenvalue-minimisations  :   608
 total energy-change (2. order) : 0.1000821E-01  (-0.5055644E-03)
 number of electron      31.9999994 magnetization 
 augmentation part        0.7634363 magnetization 

 Broyden mixing:
  rms(total) = 0.21596E-01    rms(broyden)= 0.21593E-01
  rms(prec ) = 0.23879E-01
  weight for this iteration     100.00

 eigenvalues of (default mixing * dielectric matrix)
  average eigenvalue GAMMA=   1.9598
  3.2756  2.1599  2.1599  1.1018  1.1018

 Free energy of the ion-electron system (eV)
  ---------------------------------------------------
  alpha Z        PSCENC =        12.49161259
  Ewald energy   TEWEN  =      5185.64168854
  -Hartree energ DENC   =     -6165.97328440
  -exchange      EXHF   =         0.00000000
  -V(xc)+E(xc)   XCENC  =       110.19337106
  PAW double counting   =      3394.76572641    -3400.17151640
  entropy T*S    EENTRO =         0.00000000
  eigenvalues    EBANDS =      -387.81301002
  atomic energy  EATOM  =      1177.01779097
  Solvation  Ediel_sol  =         0.00000000
  ---------------------------------------------------
  free energy    TOTEN  =       -73.84762125 eV

  energy without entropy =      -73.84762125  energy(sigma->0) =      -73.84762125


--------------------------------------------------------------------------------------------------------




--------------------------------------- Iteration      1(  11)  ---------------------------------------


    POTLOK:  cpu time    0.2416: real time    0.2432
    SETDIJ:  cpu time    0.0045: real time    0.0045
     EDDAV:  cpu time    4.3050: real time    4.5387
 BZINTS: Fermi energy: -3.941314; 32.000000 electrons
         Band energy:-386.150720;  BLOECHL correction:  0.000000
       DOS:  cpu time    0.0007: real time    0.0007
    CHARGE:  cpu time    0.1173: real time    0.1179
    MIXING:  cpu time    0.0085: real time    0.0085
    --------------------------------------------
      LOOP:  cpu time    4.6774: real time    4.9135

 eigenvalue-minimisations  :   600
 total energy-change (2. order) :-0.4983929E-03  (-0.9533855E-04)
 number of electron      31.9999994 magnetization 
 augmentation part        0.7627489 magnetization 

 Broyden mixing:
  rms(total) = 0.68238E-02    rms(broyden)= 0.68189E-02
  rms(prec ) = 0.11041E-01
  weight for this iteration     100.00

 eigenvalues of (default mixing * dielectric matrix)
  average eigenvalue GAMMA=   2.4272
  5.3489  2.5860  2.5860  2.0809  1.0449  0.9167

 Free energy of the ion-electron system (eV)
  ---------------------------------------------------
  alpha Z        PSCENC =        12.49161259
  Ewald energy   TEWEN  =      5185.64168854
  -Hartree energ DENC   =     -6167.66114751
  -exchange      EXHF   =         0.00000000
  -V(xc)+E(xc)   XCENC  =       110.21830765
  PAW double counting   =      3439.01343321    -3444.41908513
  entropy T*S    EENTRO =         0.00000000
  eigenvalues    EBANDS =      -386.15071995
  atomic energy  EATOM  =      1177.01779097
  Solvation  Ediel_sol  =         0.00000000
  ---------------------------------------------------
  free energy    TOTEN  =       -73.84811964 eV

  energy without entropy =      -73.84811964  energy(sigma->0) =      -73.84811964


--------------------------------------------------------------------------------------------------------




--------------------------------------- Iteration      1(  12)  ---------------------------------------


    POTLOK:  cpu time    0.2394: real time    0.2406
    SETDIJ:  cpu time    0.0036: real time    0.0036
     EDDAV:  cpu time    3.9781: real time    4.1762
 BZINTS: Fermi energy: -3.812938; 32.000000 electrons
         Band energy:-382.044989;  BLOECHL correction:  0.000000
       DOS:  cpu time    0.0008: real time    0.0010
    CHARGE:  cpu time    0.1220: real time    0.1250
    MIXING:  cpu time    0.0088: real time    0.0089
    --------------------------------------------
      LOOP:  cpu time    4.3528: real time    4.5553

 eigenvalue-minimisations  :   552
 total energy-change (2. order) :-0.2413421E-02  (-0.4375139E-04)
 number of electron      31.9999994 magnetization 
 augmentation part        0.7627500 magnetization 

 Broyden mixing:
  rms(total) = 0.77341E-02    rms(broyden)= 0.77339E-02
  rms(prec ) = 0.83188E-02
  weight for this iteration     100.00

 eigenvalues of (default mixing * dielectric matrix)
  average eigenvalue GAMMA=   2.3010
  5.9146  2.7483  2.5530  2.0301  1.0472  0.9071  0.9071

 Free energy of the ion-electron system (eV)
  ---------------------------------------------------
  alpha Z        PSCENC =        12.49161259
  Ewald energy   TEWEN  =      5185.64168854
  -Hartree energ DENC   =     -6171.75833591
  -exchange      EXHF   =         0.00000000
  -V(xc)+E(xc)   XCENC  =       110.21234356
  PAW double counting   =      3448.96288984    -3454.37353362
  entropy T*S    EENTRO =         0.00000000
  eigenvalues    EBANDS =      -382.04498903
  atomic energy  EATOM  =      1177.01779097
  Solvation  Ediel_sol  =         0.00000000
  ---------------------------------------------------
  free energy    TOTEN  =       -73.85053306 eV

  energy without entropy =      -73.85053306  energy(sigma->0) =      -73.85053306


--------------------------------------------------------------------------------------------------------




--------------------------------------- Iteration      1(  13)  ---------------------------------------


    POTLOK:  cpu time    0.2333: real time    0.2344
    SETDIJ:  cpu time    0.0037: real time    0.0037
     EDDAV:  cpu time    3.9578: real time    4.0017
 BZINTS: Fermi energy: -3.794598; 32.000000 electrons
         Band energy:-381.458189;  BLOECHL correction:  0.000000
       DOS:  cpu time    0.0005: real time    0.0005
    CHARGE:  cpu time    0.1136: real time    0.1143
    MIXING:  cpu time    0.0099: real time    0.0099
    --------------------------------------------
      LOOP:  cpu time    4.3188: real time    4.3645

 eigenvalue-minimisations  :   592
 total energy-change (2. order) :-0.1132933E-02  (-0.2624681E-05)
 number of electron      31.9999994 magnetization 
 augmentation part        0.7626393 magnetization 

 Broyden mixing:
  rms(total) = 0.33387E-02    rms(broyden)= 0.33386E-02
  rms(prec ) = 0.40465E-02
  weight for this iteration     100.00

 eigenvalues of (default mixing * dielectric matrix)
  average eigenvalue GAMMA=   2.8135
  7.8619  4.4155  2.7064  2.5287  2.0129  1.0678  0.9572  0.9572

 Free energy of the ion-electron system (eV)
  ---------------------------------------------------
  alpha Z        PSCENC =        12.49161259
  Ewald energy   TEWEN  =      5185.64168854
  -Hartree energ DENC   =     -6172.34662292
  -exchange      EXHF   =         0.00000000
  -V(xc)+E(xc)   XCENC  =       110.21552069
  PAW double counting   =      3440.03253621    -3445.44600348
  entropy T*S    EENTRO =         0.00000000
  eigenvalues    EBANDS =      -381.45818859
  atomic energy  EATOM  =      1177.01779097
  Solvation  Ediel_sol  =         0.00000000
  ---------------------------------------------------
  free energy    TOTEN  =       -73.85166599 eV

  energy without entropy =      -73.85166599  energy(sigma->0) =      -73.85166599


--------------------------------------------------------------------------------------------------------




--------------------------------------- Iteration      1(  14)  ---------------------------------------


    POTLOK:  cpu time    0.2303: real time    0.2311
    SETDIJ:  cpu time    0.0042: real time    0.0043
     EDDAV:  cpu time    3.4531: real time    3.4675
 BZINTS: Fermi energy: -3.772924; 32.000000 electrons
         Band energy:-380.734320;  BLOECHL correction:  0.000000
       DOS:  cpu time    0.0009: real time    0.0010
    CHARGE:  cpu time    0.1053: real time    0.1056
    MIXING:  cpu time    0.0101: real time    0.0101
    --------------------------------------------
      LOOP:  cpu time    3.8038: real time    3.8196

 eigenvalue-minimisations  :   528
 total energy-change (2. order) :-0.3048853E-02  (-0.2907589E-04)
 number of electron      31.9999994 magnetization 
 augmentation part        0.7626381 magnetization 

 Broyden mixing:
  rms(total) = 0.19801E-02    rms(broyden)= 0.19801E-02
  rms(prec ) = 0.20521E-02
  weight for this iteration     100.00

 eigenvalues of (default mixing * dielectric matrix)
  average eigenvalue GAMMA=   2.5717
  7.8073  4.3976  2.5449  2.5449  2.0338  1.0486  0.9409  0.9409  0.8862

 Free energy of the ion-electron system (eV)
  ---------------------------------------------------
  alpha Z        PSCENC =        12.49161259
  Ewald energy   TEWEN  =      5185.64168854
  -Hartree energ DENC   =     -6173.07205654
  -exchange      EXHF   =         0.00000000
  -V(xc)+E(xc)   XCENC  =       110.20948880
  PAW double counting   =      3432.38675342    -3437.79567236
  entropy T*S    EENTRO =         0.00000000
  eigenvalues    EBANDS =      -380.73432026
  atomic energy  EATOM  =      1177.01779097
  Solvation  Ediel_sol  =         0.00000000
  ---------------------------------------------------
  free energy    TOTEN  =       -73.85471485 eV

  energy without entropy =      -73.85471485  energy(sigma->0) =      -73.85471485


--------------------------------------------------------------------------------------------------------




--------------------------------------- Iteration      1(  15)  ---------------------------------------


    POTLOK:  cpu time    0.2276: real time    0.2282
    SETDIJ:  cpu time    0.0049: real time    0.0049
     EDDAV:  cpu time    3.8157: real time    3.8441
 BZINTS: Fermi energy: -3.767923; 32.000000 electrons
         Band energy:-380.675092;  BLOECHL correction:  0.000000
       DOS:  cpu time    0.0007: real time    0.0007
    CHARGE:  cpu time    0.1214: real time    0.1221
    MIXING:  cpu time    0.0094: real time    0.0094
    --------------------------------------------
      LOOP:  cpu time    4.1797: real time    4.2094

 eigenvalue-minimisations  :   584
 total energy-change (2. order) :-0.8031593E-04  (-0.2005129E-06)
 number of electron      31.9999994 magnetization 
 augmentation part        0.7626137 magnetization 

 Broyden mixing:
  rms(total) = 0.74957E-03    rms(broyden)= 0.74954E-03
  rms(prec ) = 0.86704E-03
  weight for this iteration     100.00

 eigenvalues of (default mixing * dielectric matrix)
  average eigenvalue GAMMA=   2.8050
  8.4039  5.1004  3.4086  2.6528  2.5588  2.0103  1.0752  0.9834  0.9834  0.8736

 Free energy of the ion-electron system (eV)
  ---------------------------------------------------
  alpha Z        PSCENC =        12.49161259
  Ewald energy   TEWEN  =      5185.64168854
  -Hartree energ DENC   =     -6173.13061468
  -exchange      EXHF   =         0.00000000
  -V(xc)+E(xc)   XCENC  =       110.21054667
  PAW double counting   =      3434.66978921    -3440.08051625
  entropy T*S    EENTRO =         0.00000000
  eigenvalues    EBANDS =      -380.67509221
  atomic energy  EATOM  =      1177.01779097
  Solvation  Ediel_sol  =         0.00000000
  ---------------------------------------------------
  free energy    TOTEN  =       -73.85479516 eV

  energy without entropy =      -73.85479516  energy(sigma->0) =      -73.85479516


--------------------------------------------------------------------------------------------------------




--------------------------------------- Iteration      1(  16)  ---------------------------------------


    POTLOK:  cpu time    0.2308: real time    0.2317
    SETDIJ:  cpu time    0.0040: real time    0.0040
     EDDAV:  cpu time    3.7794: real time    3.9301
 BZINTS: Fermi energy: -3.766255; 32.000000 electrons
         Band energy:-380.597018;  BLOECHL correction:  0.000000
       DOS:  cpu time    0.0005: real time    0.0005
    CHARGE:  cpu time    0.1232: real time    0.1251
    MIXING:  cpu time    0.0099: real time    0.0099
    --------------------------------------------
      LOOP:  cpu time    4.1478: real time    4.3013

 eigenvalue-minimisations  :   512
 total energy-change (2. order) :-0.2198740E-03  (-0.9834730E-06)
 number of electron      31.9999994 magnetization 
 augmentation part        0.7626158 magnetization 

 Broyden mixing:
  rms(total) = 0.41600E-03    rms(broyden)= 0.41599E-03
  rms(prec ) = 0.45950E-03
  weight for this iteration     100.00

 eigenvalues of (default mixing * dielectric matrix)
  average eigenvalue GAMMA=   2.6916
  8.3977  5.1667  3.4637  2.5520  2.5520  2.0470  1.2429  1.2429  0.9320  0.9686
  1.0423

 Free energy of the ion-electron system (eV)
  ---------------------------------------------------
  alpha Z        PSCENC =        12.49161259
  Ewald energy   TEWEN  =      5185.64168854
  -Hartree energ DENC   =     -6173.20848262
  -exchange      EXHF   =         0.00000000
  -V(xc)+E(xc)   XCENC  =       110.21035323
  PAW double counting   =      3436.13780436    -3441.54876364
  entropy T*S    EENTRO =         0.00000000
  eigenvalues    EBANDS =      -380.59701846
  atomic energy  EATOM  =      1177.01779097
  Solvation  Ediel_sol  =         0.00000000
  ---------------------------------------------------
  free energy    TOTEN  =       -73.85501504 eV

  energy without entropy =      -73.85501504  energy(sigma->0) =      -73.85501504


--------------------------------------------------------------------------------------------------------




--------------------------------------- Iteration      1(  17)  ---------------------------------------


    POTLOK:  cpu time    0.2492: real time    0.2729
    SETDIJ:  cpu time    0.0055: real time    0.0055
     EDDAV:  cpu time    3.8905: real time    4.1131
 BZINTS: Fermi energy: -3.766255; 32.000000 electrons
         Band energy:-380.554052;  BLOECHL correction:  0.000000
       DOS:  cpu time    0.0008: real time    0.0008
    CHARGE:  cpu time    0.1505: real time    0.1631
    MIXING:  cpu time    0.0144: real time    0.0148
    --------------------------------------------
      LOOP:  cpu time    4.3107: real time    4.5702

 eigenvalue-minimisations  :   536
 total energy-change (2. order) :-0.2364221E-04  (-0.6147106E-07)
 number of electron      31.9999994 magnetization 
 augmentation part        0.7626263 magnetization 

 Broyden mixing:
  rms(total) = 0.27294E-03    rms(broyden)= 0.27293E-03
  rms(prec ) = 0.30416E-03
  weight for this iteration     100.00

 eigenvalues of (default mixing * dielectric matrix)
  average eigenvalue GAMMA=   2.7386
  8.4443  5.4770  3.7865  3.1383  2.4931  2.4481  2.0375  0.9250  0.9645  1.0571
  1.0460  1.0460

 Free energy of the ion-electron system (eV)
  ---------------------------------------------------
  alpha Z        PSCENC =        12.49161259
  Ewald energy   TEWEN  =      5185.64168854
  -Hartree energ DENC   =     -6173.25166162
  -exchange      EXHF   =         0.00000000
  -V(xc)+E(xc)   XCENC  =       110.20997426
  PAW double counting   =      3435.80147202    -3441.21186330
  entropy T*S    EENTRO =         0.00000000
  eigenvalues    EBANDS =      -380.55405214
  atomic energy  EATOM  =      1177.01779097
  Solvation  Ediel_sol  =         0.00000000
  ---------------------------------------------------
  free energy    TOTEN  =       -73.85503868 eV

  energy without entropy =      -73.85503868  energy(sigma->0) =      -73.85503868


--------------------------------------------------------------------------------------------------------




--------------------------------------- Iteration      1(  18)  ---------------------------------------


    POTLOK:  cpu time    0.2894: real time    0.3082
    SETDIJ:  cpu time    0.0047: real time    0.0054
     EDDAV:  cpu time    3.5285: real time    3.5700
 BZINTS: Fermi energy: -3.766255; 32.000000 electrons
         Band energy:-380.507282;  BLOECHL correction:  0.000000
       DOS:  cpu time    0.0005: real time    0.0005
    CHARGE:  cpu time    0.1151: real time    0.1159
    MIXING:  cpu time    0.0136: real time    0.0139
    --------------------------------------------
      LOOP:  cpu time    3.9519: real time    4.0140

 eigenvalue-minimisations  :   520
 total energy-change (2. order) :-0.1348168E-04  (-0.3847360E-07)
 number of electron      31.9999994 magnetization 
 augmentation part        0.7626179 magnetization 

 Broyden mixing:
  rms(total) = 0.19620E-03    rms(broyden)= 0.19620E-03
  rms(prec ) = 0.20613E-03
  weight for this iteration     100.00

 eigenvalues of (default mixing * dielectric matrix)
  average eigenvalue GAMMA=   2.8860
  8.4460  6.2336  4.7679  3.4542  2.7893  2.5393  2.2048  2.0335  1.1011  0.9202
  1.0187  1.0187  0.9905

 Free energy of the ion-electron system (eV)
  ---------------------------------------------------
  alpha Z        PSCENC =        12.49161259
  Ewald energy   TEWEN  =      5185.64168854
  -Hartree energ DENC   =     -6173.29860071
  -exchange      EXHF   =         0.00000000
  -V(xc)+E(xc)   XCENC  =       110.21034933
  PAW double counting   =      3435.20902164    -3440.61963273
  entropy T*S    EENTRO =         0.00000000
  eigenvalues    EBANDS =      -380.50728179
  atomic energy  EATOM  =      1177.01779097
  Solvation  Ediel_sol  =         0.00000000
  ---------------------------------------------------
  free energy    TOTEN  =       -73.85505216 eV

  energy without entropy =      -73.85505216  energy(sigma->0) =      -73.85505216


--------------------------------------------------------------------------------------------------------




--------------------------------------- Iteration      1(  19)  ---------------------------------------


    POTLOK:  cpu time    0.2437: real time    0.2463
    SETDIJ:  cpu time    0.0040: real time    0.0040
     EDDAV:  cpu time    3.3133: real time    3.3334
 BZINTS: Fermi energy: -3.761254; 32.000000 electrons
         Band energy:-380.488799;  BLOECHL correction:  0.000000
       DOS:  cpu time    0.0007: real time    0.0007
    CHARGE:  cpu time    0.1216: real time    0.1230
    MIXING:  cpu time    0.0105: real time    0.0105
    --------------------------------------------
      LOOP:  cpu time    3.6937: real time    3.7178

 eigenvalue-minimisations  :   488
 total energy-change (2. order) :-0.1175696E-04  (-0.7055105E-08)
 number of electron      31.9999994 magnetization 
 augmentation part        0.7626193 magnetization 

 Broyden mixing:
  rms(total) = 0.90704E-04    rms(broyden)= 0.90704E-04
  rms(prec ) = 0.91688E-04
  weight for this iteration     100.00

 eigenvalues of (default mixing * dielectric matrix)
  average eigenvalue GAMMA=   2.9749
  8.5101  7.8626  5.1633  3.6355  2.9419  2.4333  2.4333  2.0825  1.5499  1.1144
  0.9209  1.0066  1.0066  0.9875

 Free energy of the ion-electron system (eV)
  ---------------------------------------------------
  alpha Z        PSCENC =        12.49161259
  Ewald energy   TEWEN  =      5185.64168854
  -Hartree energ DENC   =     -6173.31703135
  -exchange      EXHF   =         0.00000000
  -V(xc)+E(xc)   XCENC  =       110.21023907
  PAW double counting   =      3435.29000782    -3440.70057245
  entropy T*S    EENTRO =         0.00000000
  eigenvalues    EBANDS =      -380.48879910
  atomic energy  EATOM  =      1177.01779097
  Solvation  Ediel_sol  =         0.00000000
  ---------------------------------------------------
  free energy    TOTEN  =       -73.85506392 eV

  energy without entropy =      -73.85506392  energy(sigma->0) =      -73.85506392


--------------------------------------------------------------------------------------------------------




--------------------------------------- Iteration      1(  20)  ---------------------------------------


    POTLOK:  cpu time    0.2344: real time    0.2350
    SETDIJ:  cpu time    0.0039: real time    0.0039
     EDDAV:  cpu time    3.5070: real time    3.5585
 BZINTS: Fermi energy: -3.761254; 32.000000 electrons
         Band energy:-380.485906;  BLOECHL correction:  0.000000
       DOS:  cpu time    0.0005: real time    0.0005
    CHARGE:  cpu time    0.1146: real time    0.1158
    MIXING:  cpu time    0.0138: real time    0.0141
    --------------------------------------------
      LOOP:  cpu time    3.8742: real time    3.9279

 eigenvalue-minimisations  :   512
 total energy-change (2. order) :-0.1435018E-05  (-0.8774720E-09)
 number of electron      31.9999994 magnetization 
 augmentation part        0.7626203 magnetization 

 Broyden mixing:
  rms(total) = 0.37773E-04    rms(broyden)= 0.37773E-04
  rms(prec ) = 0.38528E-04
  weight for this iteration     100.00

 eigenvalues of (default mixing * dielectric matrix)
  average eigenvalue GAMMA=   3.0597
  9.6720  8.5149  5.2108  3.9844  2.9450  2.7423  2.4481  2.2434  2.0567  0.9205
  1.0706  1.0706  0.9739  1.0216  1.0216

 Free energy of the ion-electron system (eV)
  ---------------------------------------------------
  alpha Z        PSCENC =        12.49161259
  Ewald energy   TEWEN  =      5185.64168854
  -Hartree energ DENC   =     -6173.31986417
  -exchange      EXHF   =         0.00000000
  -V(xc)+E(xc)   XCENC  =       110.21019817
  PAW double counting   =      3435.51182351    -3440.92240862
  entropy T*S    EENTRO =         0.00000000
  eigenvalues    EBANDS =      -380.48590633
  atomic energy  EATOM  =      1177.01779097
  Solvation  Ediel_sol  =         0.00000000
  ---------------------------------------------------
  free energy    TOTEN  =       -73.85506535 eV

  energy without entropy =      -73.85506535  energy(sigma->0) =      -73.85506535


--------------------------------------------------------------------------------------------------------




--------------------------------------- Iteration      1(  21)  ---------------------------------------


    POTLOK:  cpu time    0.2492: real time    0.2512
    SETDIJ:  cpu time    0.0039: real time    0.0039
     EDDAV:  cpu time    3.4185: real time    3.5469
 BZINTS: Fermi energy: -3.761254; 32.000000 electrons
         Band energy:-380.484939;  BLOECHL correction:  0.000000
       DOS:  cpu time    0.0009: real time    0.0011
    CHARGE:  cpu time    0.1129: real time    0.1144
    MIXING:  cpu time    0.0134: real time    0.0138
    --------------------------------------------
      LOOP:  cpu time    3.7988: real time    3.9312

 eigenvalue-minimisations  :   456
 total energy-change (2. order) :-0.1340712E-05  (-0.5169640E-09)
 number of electron      31.9999994 magnetization 
 augmentation part        0.7626196 magnetization 

 Broyden mixing:
  rms(total) = 0.42566E-05    rms(broyden)= 0.42561E-05
  rms(prec ) = 0.44698E-05
  weight for this iteration     100.00

 eigenvalues of (default mixing * dielectric matrix)
  average eigenvalue GAMMA=   2.9830
  9.7857  8.4674  5.2780  3.8488  3.1991  2.7820  2.5214  2.1978  2.0648  1.5543
  0.9177  1.0853  1.0305  1.0305  0.9824  0.9824

 Free energy of the ion-electron system (eV)
  ---------------------------------------------------
  alpha Z        PSCENC =        12.49161259
  Ewald energy   TEWEN  =      5185.64168854
  -Hartree energ DENC   =     -6173.32085287
  -exchange      EXHF   =         0.00000000
  -V(xc)+E(xc)   XCENC  =       110.21023734
  PAW double counting   =      3435.46907465    -3440.87967891
  entropy T*S    EENTRO =         0.00000000
  eigenvalues    EBANDS =      -380.48493900
  atomic energy  EATOM  =      1177.01779097
  Solvation  Ediel_sol  =         0.00000000
  ---------------------------------------------------
  free energy    TOTEN  =       -73.85506669 eV

  energy without entropy =      -73.85506669  energy(sigma->0) =      -73.85506669


--------------------------------------------------------------------------------------------------------




--------------------------------------- Iteration      1(  22)  ---------------------------------------


    POTLOK:  cpu time    0.2684: real time    0.2719
    SETDIJ:  cpu time    0.0046: real time    0.0046
     EDDAV:  cpu time    3.5681: real time    3.6230
 BZINTS: Fermi energy: -3.761254; 32.000000 electrons
         Band energy:-380.484523;  BLOECHL correction:  0.000000
       DOS:  cpu time    0.0005: real time    0.0005
    --------------------------------------------
      LOOP:  cpu time    3.8417: real time    3.9000

 eigenvalue-minimisations  :   520
 total energy-change (2. order) :-0.1252979E-06  (-0.3483647E-10)
 number of electron      31.9999994 magnetization 
 augmentation part        0.7626196 magnetization 

 Free energy of the ion-electron system (eV)
  ---------------------------------------------------
  alpha Z        PSCENC =        12.49161259
  Ewald energy   TEWEN  =      5185.64168854
  -Hartree energ DENC   =     -6173.32127594
  -exchange      EXHF   =         0.00000000
  -V(xc)+E(xc)   XCENC  =       110.21023818
  PAW double counting   =      3435.46439392    -3440.87499196
  entropy T*S    EENTRO =         0.00000000
  eigenvalues    EBANDS =      -380.48452312
  atomic energy  EATOM  =      1177.01779097
  Solvation  Ediel_sol  =         0.00000000
  ---------------------------------------------------
  free energy    TOTEN  =       -73.85506682 eV

  energy without entropy =      -73.85506682  energy(sigma->0) =      -73.85506682


--------------------------------------------------------------------------------------------------------




 average (electrostatic) potential at core
  the test charge radii are     0.6991
  (the norm of the test charge is              1.0000)
       1 -58.1993       2 -58.1993       3 -58.1993       4 -58.1993       5 -58.1993
       6 -58.1993       7 -58.1993       8 -58.1993



 E-fermi :  -3.7613     XC(G=0):  -2.1867     alpha+bet : -1.9051


 k-point     1 :       0.0000    0.0000    0.0000
  band No.  band energies     occupation 
      1     -22.2765      2.00000
      2     -17.0284      2.00000
      3     -17.0284      2.00000
      4     -17.0284      2.00000
      5     -15.9871      2.00000
      6     -15.9871      2.00000
      7     -15.9871      2.00000
      8     -10.3726      2.00000
      9      -9.1582      2.00000
     10      -9.1582      2.00000
     11      -9.1582      2.00000
     12      -5.7731      2.00000
     13      -5.7731      2.00000
     14      -5.1068      2.00000
     15      -5.1068      2.00000
     16      -5.1068      2.00000
     17      -1.0608      0.00000
     18      -1.0608      0.00000
     19      -1.0608      0.00000
     20       0.5174      0.00000
     21       1.3065      0.00000
     22       1.6308      0.00000
     23       2.5519      0.00000
     24       3.0166      0.00000
     25       4.6449      0.00000
     26       4.6449      0.00000
     27       4.6449      0.00000
     28       4.6869      0.00000
     29       5.3062      0.00000
     30       5.6115      0.00000
     31       5.6115      0.00000
     32       7.6389      0.00000
     33       8.3793      0.00000
     34       8.3793      0.00000
     35       8.3793      0.00000
     36       8.4354      0.00000
     37       8.5329      0.00000
     38       8.5329      0.00000
     39       8.5329      0.00000
     40       8.7237      0.00000
     41       9.2230      0.00000
     42       9.2230      0.00000
     43       9.2230      0.00000
     44       9.4216      0.00000
     45       9.4216      0.00000
     46       9.4216      0.00000
     47       9.7811      0.00000
     48       9.8513      0.00000
     49       9.8513      0.00000
     50       9.8513      0.00000
     51       9.8588      0.00000
     52       9.8588      0.00000
     53       9.8588      0.00000
     54      10.5400      0.00000
     55      10.5400      0.00000
     56      10.5400      0.00000
     57      10.7166      0.00000
     58      10.7166      0.00000
     59      10.7166      0.00000
     60      11.1149      0.00000
     61      11.1149      0.00000
     62      11.1153      0.00000
     63      11.1492      0.00000
     64      11.1493      0.00000

 k-point     2 :       0.2500    0.0000    0.0000
  band No.  band energies     occupation 
      1     -21.9074      2.00000
      2     -19.0210      2.00000
      3     -17.6609      2.00000
      4     -17.6609      2.00000
      5     -14.7610      2.00000
      6     -14.7610      2.00000
      7     -13.4537      2.00000
      8     -10.1734      2.00000
      9     -10.1734      2.00000
     10      -9.9324      2.00000
     11      -8.7958      2.00000
     12      -7.1582      2.00000
     13      -6.6611      2.00000
     14      -6.4773      2.00000
     15      -5.3114      2.00000
     16      -5.3114      2.00000
     17      -0.5051      0.00000
     18      -0.5051      0.00000
     19       1.0191      0.00000
     20       1.0557      0.00000
     21       1.8146      0.00000
     22       2.1450      0.00000
     23       3.0613      0.00000
     24       3.5249      0.00000
     25       4.7778      0.00000
     26       5.0803      0.00000
     27       5.1909      0.00000
     28       5.6294      0.00000
     29       5.8640      0.00000
     30       5.8726      0.00000
     31       6.2256      0.00000
     32       6.2256      0.00000
     33       6.2608      0.00000
     34       6.9999      0.00000
     35       6.9999      0.00000
     36       7.1227      0.00000
     37       7.1277      0.00000
     38       7.4963      0.00000
     39       7.6028      0.00000
     40       7.7704      0.00000
     41       7.7704      0.00000
     42       8.1353      0.00000
     43       8.3145      0.00000
     44       8.3145      0.00000
     45       8.9436      0.00000
     46       9.0474      0.00000
     47       9.0474      0.00000
     48       9.1839      0.00000
     49       9.6192      0.00000
     50       9.6192      0.00000
     51       9.8475      0.00000
     52      10.5018      0.00000
     53      10.5706      0.00000
     54      10.5706      0.00000
     55      10.6542      0.00000
     56      10.6542      0.00000
     57      11.5912      0.00000
     58      11.5912      0.00000
     59      11.8223      0.00000
     60      11.8223      0.00000
     61      11.8568      0.00000
     62      11.8942      0.00000
     63      12.3980      0.00000
     64      12.3983      0.00000

 k-point     3 :       0.5000    0.0000    0.0000
  band No.  band energies     occupation 
      1     -20.8096      2.00000
      2     -20.8096      2.00000
      3     -17.9882      2.00000
      4     -17.9882      2.00000
      5     -13.2774      2.00000
      6     -13.2774      2.00000
      7     -11.7011      2.00000
      8     -11.7011      2.00000
      9     -10.1722      2.00000
     10     -10.1722      2.00000
     11      -8.6429      2.00000
     12      -8.6429      2.00000
     13      -7.7884      2.00000
     14      -7.7884      2.00000
     15      -5.4855      2.00000
     16      -5.4855      2.00000
     17       0.0800      0.00000
     18       0.0800      0.00000
     19       2.5218      0.00000
     20       2.5218      0.00000
     21       3.3206      0.00000
     22       3.3206      0.00000
     23       3.6874      0.00000
     24       3.6874      0.00000
     25       4.4509      0.00000
     26       4.4509      0.00000
     27       4.6791      0.00000
     28       4.6791      0.00000
     29       5.0255      0.00000
     30       5.0255      0.00000
     31       5.3465      0.00000
     32       5.3465      0.00000
     33       6.4887      0.00000
     34       6.4887      0.00000
     35       6.7061      0.00000
     36       6.7061      0.00000
     37       7.1584      0.00000
     38       7.1584      0.00000
     39       7.3394      0.00000
     40       7.3394      0.00000
     41       7.7989      0.00000
     42       7.7989      0.00000
     43       8.4542      0.00000
     44       8.4542      0.00000
     45       9.0818      0.00000
     46       9.0818      0.00000
     47       9.5455      0.00000
     48       9.5455      0.00000
     49       9.6046      0.00000
     50       9.6046      0.00000
     51       9.8792      0.00000
     52       9.8792      0.00000
     53       9.9167      0.00000
     54       9.9167      0.00000
     55      10.4478      0.00000
     56      10.4478      0.00000
     57      10.7271      0.00000
     58      10.7271      0.00000
     59      11.3420      0.00000
     60      11.3420      0.00000
     61      11.4234      0.00000
     62      11.4234      0.00000
     63      12.4461      0.00000
     64      12.4461      0.00000

 k-point     4 :       0.2500    0.2500    0.0000
  band No.  band energies     occupation 
      1     -21.1739      2.00000
      2     -19.7298      2.00000
      3     -19.7298      2.00000
      4     -16.0797      2.00000
      5     -15.2002      2.00000
      6     -12.4851      2.00000
      7     -11.7594      2.00000
      8     -11.7594      2.00000
      9      -9.4053      2.00000
     10      -9.4053      2.00000
     11      -9.0660      2.00000
     12      -8.9669      2.00000
     13      -7.8851      2.00000
     14      -7.4044      2.00000
     15      -7.4044      2.00000
     16      -3.7660      2.00000
     17      -1.7917      0.00000
     18       2.0227      0.00000
     19       2.4684      0.00000
     20       2.4684      0.00000
     21       2.8275      0.00000
     22       3.1737      0.00000
     23       4.0213      0.00000
     24       4.0213      0.00000
     25       4.0774      0.00000
     26       4.5427      0.00000
     27       4.8443      0.00000
     28       4.8443      0.00000
     29       5.2301      0.00000
     30       5.2301      0.00000
     31       5.4927      0.00000
     32       6.0999      0.00000
     33       6.0999      0.00000
     34       6.1933      0.00000
     35       6.4547      0.00000
     36       6.4883      0.00000
     37       6.4883      0.00000
     38       6.6714      0.00000
     39       6.6714      0.00000
     40       6.8750      0.00000
     41       8.1380      0.00000
     42       8.1634      0.00000
     43       8.1634      0.00000
     44       8.1799      0.00000
     45       8.8461      0.00000
     46       8.8461      0.00000
     47       9.1072      0.00000
     48       9.3944      0.00000
     49       9.5678      0.00000
     50       9.8993      0.00000
     51       9.9524      0.00000
     52      10.5689      0.00000
     53      10.5689      0.00000
     54      10.9087      0.00000
     55      10.9087      0.00000
     56      10.9479      0.00000
     57      11.3630      0.00000
     58      11.3855      0.00000
     59      11.4899      0.00000
     60      11.9483      0.00000
     61      11.9483      0.00000
     62      12.2506      0.00000
     63      12.3731      0.00000
     64      12.5623      0.00000


--------------------------------------------------------------------------------------------------------


 soft charge-density along one line, spin component           1
         0         1         2         3         4         5         6         7         8         9
 total charge-density along one line

 pseudopotential strength for first ion, spin component:           1
 10.217  13.588  -0.000  -0.000   0.000   0.000   0.000  -0.000
 13.588  18.068  -0.000  -0.000   0.000   0.000   0.000  -0.000
 -0.000  -0.000  -4.349  -0.000  -0.000   8.507   0.000   0.000
 -0.000  -0.000  -0.000  -4.342  -0.000   0.000   8.498   0.000
  0.000   0.000  -0.000  -0.000  -4.349   0.000   0.000   8.507
  0.000   0.000   8.507   0.000   0.000 -18.777  -0.000  -0.000
  0.000   0.000   0.000   8.498   0.000  -0.000 -18.768  -0.000
 -0.000  -0.000   0.000   0.000   8.507  -0.000  -0.000 -18.777
 total augmentation occupancy for first ion, spin component:           1
  8.279  -3.693  -0.000   0.000  -0.000  -0.000  -0.000   0.000
 -3.693   1.703  -0.000  -0.000   0.000  -0.000   0.000   0.000
  0.000  -0.000   1.833  -0.000  -0.000   0.173  -0.000  -0.000
 -0.000  -0.000  -0.000   1.211   0.000   0.000   0.077  -0.000
  0.000   0.000  -0.000   0.000   1.833  -0.000  -0.000   0.173
  0.000   0.000   0.173  -0.000  -0.000   0.018   0.000  -0.000
  0.000   0.000  -0.000   0.077  -0.000   0.000   0.005  -0.000
  0.000   0.000  -0.000  -0.000   0.173  -0.000   0.000   0.018


------------------------ aborting loop because EDIFF is reached ----------------------------------------





 total charge     

# of ion       s       p       d       tot
------------------------------------------
    1        0.867   1.792   0.000   2.659
    2        0.867   1.792   0.000   2.659
    3        0.867   1.792   0.000   2.659
    4        0.867   1.792   0.000   2.659
    5        0.867   1.792   0.000   2.659
    6        0.867   1.792   0.000   2.659
    7        0.867   1.792   0.000   2.659
    8        0.867   1.792   0.000   2.659
--------------------------------------------------
tot          6.933  14.335   0.000  21.269

    CHARGE:  cpu time    0.1791: real time    0.1821
    FORLOC:  cpu time    0.0367: real time    0.0368
    FORNL :  cpu time    1.5811: real time    1.6030
    STRESS:  cpu time    1.7046: real time    1.7194
    FORCOR:  cpu time    0.2922: real time    0.2953
    FORHAR:  cpu time    0.0822: real time    0.0835
    MIXING:  cpu time    0.0117: real time    0.0117
    OFIELD:  cpu time    0.0000: real time    0.0000

  FORCE on cell =-STRESS in cart. coord.  units (eV):
  Direction    XX          YY          ZZ          XY          YZ          ZX
  --------------------------------------------------------------------------------------
  Alpha Z    12.49161    12.49161    12.49161
  Ewald    6261.69601  6261.69600 -7337.75100    -0.00000     0.00000     0.00000
  Hartree  6128.12188  6128.12188 -6082.92263    -0.00000    -0.00000    -0.00000
  E(xc)    -118.87539  -118.87539  -123.33411    -0.00000    -0.00000    -0.00000
  Local  -12732.52935-12732.52947 13009.52091    -0.00010    -0.00000    -0.00000
  n-local   -28.31925   -28.55275   -25.92390     0.16291     0.00000    -0.00000
  augment    -3.09937    -3.09929    -2.85690     0.00007     0.00000     0.00000
  Kinetic   478.74636   482.20483   549.64850   -12.91176    -0.00000     0.00000
  Fock        0.00000     0.00000     0.00000     0.00000     0.00000     0.00000
  -------------------------------------------------------------------------------------
  Total      -0.15503    -0.15503    -1.12752    -0.00000     0.00000    -0.00000
  in kB      -0.59018    -0.59018    -4.29222    -0.00000     0.00000    -0.00000
  external pressure =       -1.82 kB  Pullay stress =        0.00 kB


 VOLUME and BASIS-vectors are now :
 -----------------------------------------------------------------------------
  energy-cutoff  :      400.00
  volume of cell :      420.87
      direct lattice vectors                 reciprocal lattice vectors
     4.929416598  0.000000000  0.000000000     0.202863763  0.117123448 -0.000000000
    -2.464708299  4.269000000  0.000000000     0.000000000  0.234246896  0.000000000
     0.000000000  0.000000000 20.000000000     0.000000000 -0.000000000  0.050000000

  length of vectors
     4.929416598  4.929416598 20.000000000     0.234246896  0.234246896  0.050000000


 FORCES acting on ions
    electron-ion (+dipol)            ewald-force                    non-local-force                 convergence-correction
 -----------------------------------------------------------------------------------------------
   0.173E-05 -.727E-06 -.164E-12   0.220E-06 -.127E-06 -.126E-18   -.423E-16 0.000E+00 -.181E-24   0.712E-10 -.411E-10 -.162E-13
   0.173E-05 -.727E-06 -.126E-11   0.220E-06 -.127E-06 0.585E-19   -.219E-16 0.347E-17 -.103E-24   0.712E-10 -.411E-10 -.162E-13
   0.173E-05 -.727E-06 -.163E-12   0.220E-06 -.127E-06 -.187E-18   -.343E-16 0.121E-16 0.362E-24   0.712E-10 -.411E-10 -.166E-13
   0.173E-05 -.727E-06 -.127E-11   0.220E-06 -.127E-06 0.167E-18   -.102E-16 0.000E+00 -.103E-24   0.712E-10 -.411E-10 -.164E-13
   -.149E-05 0.113E-05 -.873E-12   -.220E-06 0.127E-06 -.443E-19   0.306E-16 -.304E-17 0.000E+00   -.712E-10 0.411E-10 -.169E-13
   -.149E-05 0.113E-05 0.111E-10   -.220E-06 0.127E-06 -.159E-18   0.167E-16 -.737E-17 -.194E-24   -.712E-10 0.411E-10 -.168E-13
   -.149E-05 0.113E-05 -.877E-12   -.220E-06 0.127E-06 0.839E-19   0.245E-16 0.130E-17 0.207E-24   -.712E-10 0.411E-10 -.171E-13
   -.149E-05 0.113E-05 0.111E-10   -.220E-06 0.127E-06 0.207E-18   0.364E-16 0.130E-17 -.569E-24   -.712E-10 0.411E-10 -.169E-13
 -----------------------------------------------------------------------------------------------
   0.935E-06 0.162E-05 0.177E-10   -.290E-13 0.269E-15 -.722E-34   -.434E-18 0.781E-17 -.582E-24   0.626E-14 0.109E-13 -.133E-12


 POSITION                                       TOTAL-FORCE (eV/Angst)
 -----------------------------------------------------------------------------------
      1.23235      0.71150     10.00000        -0.000000     -0.000000     -0.000000
      3.69706      0.71150     10.00000        -0.000000     -0.000000      0.000000
     -0.00000      2.84600     10.00000         0.000000     -0.000000      0.000000
      2.46471      2.84600     10.00000        -0.000000     -0.000000      0.000000
      0.00000      1.42300     10.00000         0.000000      0.000000     -0.000000
      2.46471      1.42300     10.00000         0.000000      0.000000     -0.000000
     -1.23235      3.55750     10.00000         0.000000      0.000000      0.000000
      1.23235      3.55750     10.00000         0.000000      0.000000      0.000000
 -----------------------------------------------------------------------------------
    total drift:                                0.000001      0.000002      0.000000


--------------------------------------------------------------------------------------------------------



  FREE ENERGIE OF THE ION-ELECTRON SYSTEM (eV)
  ---------------------------------------------------
  free  energy   TOTEN  =       -73.85506682 eV

  energy  without entropy=      -73.85506682  energy(sigma->0) =      -73.85506682



--------------------------------------------------------------------------------------------------------


    POTLOK:  cpu time    0.2900: real time    0.2927


--------------------------------------------------------------------------------------------------------


 writing wavefunctions
     LOOP+:  cpu time  102.6244: real time  107.3675
    4ORBIT:  cpu time    0.0000: real time    0.0000



 total charge     

# of ion       s       p       d       tot
------------------------------------------
    1        0.867   1.792   0.000   2.659
    2        0.867   1.792   0.000   2.659
    3        0.867   1.792   0.000   2.659
    4        0.867   1.792   0.000   2.659
    5        0.867   1.792   0.000   2.659
    6        0.867   1.792   0.000   2.659
    7        0.867   1.792   0.000   2.659
    8        0.867   1.792   0.000   2.659
--------------------------------------------------
tot          6.933  14.335   0.000  21.269

 BZINTS: Fermi energy: -3.761254; 32.000000 electrons
         Band energy:-380.484523;  BLOECHL correction:  0.000000

 total amount of memory used by VASP MPI-rank0   102193. kBytes
=======================================================================

   base      :      30000. kBytes
   nonl-proj :       2952. kBytes
   fftplans  :      19931. kBytes
   grid      :      33406. kBytes
   one-center:         24. kBytes
   wavefun   :      15880. kBytes

  
  
 General timing and accounting informations for this job:
 ========================================================
  
                  Total CPU time used (sec):      105.983
                            User time (sec):      103.712
                          System time (sec):        2.271
                         Elapsed time (sec):      110.868
  
                   Maximum memory used (kb):   146345984.
                   Average memory used (kb):           0.
  
                          Minor page faults:        51429
                          Major page faults:          937
                 Voluntary context switches:         2165
