PROCAR lm decomposed
# of k-points:    4         # of bands:   64         # of ions:    8

 k-point     1 :    0.00000000 0.00000000 0.00000000     weight = 0.06250000

band     1 # energy  -22.27649725 # occ.  2.00000000

ion      s     py     pz     px    dxy    dyz    dz2    dxz  x2-y2    tot
    1  0.081  0.000  0.000  0.000  0.000  0.000  0.000  0.000  0.000  0.081
    2  0.081  0.000  0.000  0.000  0.000  0.000  0.000  0.000  0.000  0.081
    3  0.081  0.000  0.000  0.000  0.000  0.000  0.000  0.000  0.000  0.081
    4  0.081  0.000  0.000  0.000  0.000  0.000  0.000  0.000  0.000  0.081
    5  0.081  0.000  0.000  0.000  0.000  0.000  0.000  0.000  0.000  0.081
    6  0.081  0.000  0.000  0.000  0.000  0.000  0.000  0.000  0.000  0.081
    7  0.081  0.000  0.000  0.000  0.000  0.000  0.000  0.000  0.000  0.081
    8  0.081  0.000  0.000  0.000  0.000  0.000  0.000  0.000  0.000  0.081
tot    0.646  0.000  0.000  0.000  0.000  0.000  0.000  0.000  0.000  0.646

band     2 # energy  -17.02843148 # occ.  2.00000000

ion      s     py     pz     px    dxy    dyz    dz2    dxz  x2-y2    tot
    1  0.027  0.020  0.000  0.001  0.000  0.000  0.000  0.000  0.000  0.048
    2  0.123  0.009  0.000  0.001  0.000  0.000  0.000  0.000  0.000  0.134
    3  0.123  0.009  0.000  0.001  0.000  0.000  0.000  0.000  0.000  0.134
    4  0.027  0.020  0.000  0.001  0.000  0.000  0.000  0.000  0.000  0.048
    5  0.027  0.020  0.000  0.001  0.000  0.000  0.000  0.000  0.000  0.048
    6  0.123  0.009  0.000  0.001  0.000  0.000  0.000  0.000  0.000  0.134
    7  0.123  0.009  0.000  0.001  0.000  0.000  0.000  0.000  0.000  0.134
    8  0.027  0.020  0.000  0.001  0.000  0.000  0.000  0.000  0.000  0.048
tot    0.600  0.116  0.000  0.011  0.000  0.000  0.000  0.000  0.000  0.727

band     3 # energy  -17.02843148 # occ.  2.00000000

ion      s     py     pz     px    dxy    dyz    dz2    dxz  x2-y2    tot
    1  0.123  0.000  0.000  0.011  0.000  0.000  0.000  0.000  0.000  0.134
    2  0.027  0.010  0.000  0.011  0.000  0.000  0.000  0.000  0.000  0.048
    3  0.027  0.010  0.000  0.011  0.000  0.000  0.000  0.000  0.000  0.048
    4  0.123  0.000  0.000  0.011  0.000  0.000  0.000  0.000  0.000  0.134
    5  0.123  0.000  0.000  0.011  0.000  0.000  0.000  0.000  0.000  0.134
    6  0.027  0.010  0.000  0.011  0.000  0.000  0.000  0.000  0.000  0.048
    7  0.027  0.010  0.000  0.011  0.000  0.000  0.000  0.000  0.000  0.048
    8  0.123  0.000  0.000  0.011  0.000  0.000  0.000  0.000  0.000  0.134
tot    0.600  0.043  0.000  0.084  0.000  0.000  0.000  0.000  0.000  0.727

band     4 # energy  -17.02843140 # occ.  2.00000000

ion      s     py     pz     px    dxy    dyz    dz2    dxz  x2-y2    tot
    1  0.075  0.004  0.000  0.012  0.000  0.000  0.000  0.000  0.000  0.091
    2  0.075  0.004  0.000  0.012  0.000  0.000  0.000  0.000  0.000  0.091
    3  0.075  0.004  0.000  0.012  0.000  0.000  0.000  0.000  0.000  0.091
    4  0.075  0.004  0.000  0.012  0.000  0.000  0.000  0.000  0.000  0.091
    5  0.075  0.004  0.000  0.012  0.000  0.000  0.000  0.000  0.000  0.091
    6  0.075  0.004  0.000  0.012  0.000  0.000  0.000  0.000  0.000  0.091
    7  0.075  0.004  0.000  0.012  0.000  0.000  0.000  0.000  0.000  0.091
    8  0.075  0.004  0.000  0.012  0.000  0.000  0.000  0.000  0.000  0.091
tot    0.600  0.032  0.000  0.095  0.000  0.000  0.000  0.000  0.000  0.727

band     5 # energy  -15.98707407 # occ.  2.00000000

ion      s     py     pz     px    dxy    dyz    dz2    dxz  x2-y2    tot
    1  0.055  0.001  0.000  0.033  0.000  0.000  0.000  0.000  0.000  0.090
    2  0.014  0.031  0.000  0.033  0.000  0.000  0.000  0.000  0.000  0.078
    3  0.014  0.031  0.000  0.033  0.000  0.000  0.000  0.000  0.000  0.078
    4  0.055  0.001  0.000  0.033  0.000  0.000  0.000  0.000  0.000  0.090
    5  0.055  0.001  0.000  0.033  0.000  0.000  0.000  0.000  0.000  0.090
    6  0.014  0.031  0.000  0.033  0.000  0.000  0.000  0.000  0.000  0.078
    7  0.014  0.031  0.000  0.033  0.000  0.000  0.000  0.000  0.000  0.078
    8  0.055  0.001  0.000  0.033  0.000  0.000  0.000  0.000  0.000  0.090
tot    0.276  0.129  0.000  0.264  0.000  0.000  0.000  0.000  0.000  0.669

band     6 # energy  -15.98707407 # occ.  2.00000000

ion      s     py     pz     px    dxy    dyz    dz2    dxz  x2-y2    tot
    1  0.014  0.060  0.000  0.004  0.000  0.000  0.000  0.000  0.000  0.078
    2  0.055  0.031  0.000  0.004  0.000  0.000  0.000  0.000  0.000  0.090
    3  0.055  0.031  0.000  0.004  0.000  0.000  0.000  0.000  0.000  0.090
    4  0.014  0.060  0.000  0.004  0.000  0.000  0.000  0.000  0.000  0.078
    5  0.014  0.060  0.000  0.004  0.000  0.000  0.000  0.000  0.000  0.078
    6  0.055  0.031  0.000  0.004  0.000  0.000  0.000  0.000  0.000  0.090
    7  0.055  0.031  0.000  0.004  0.000  0.000  0.000  0.000  0.000  0.090
    8  0.014  0.060  0.000  0.004  0.000  0.000  0.000  0.000  0.000  0.078
tot    0.276  0.362  0.000  0.031  0.000  0.000  0.000  0.000  0.000  0.669

band     7 # energy  -15.98707402 # occ.  2.00000000

ion      s     py     pz     px    dxy    dyz    dz2    dxz  x2-y2    tot
    1  0.035  0.012  0.000  0.037  0.000  0.000  0.000  0.000  0.000  0.084
    2  0.035  0.012  0.000  0.037  0.000  0.000  0.000  0.000  0.000  0.084
    3  0.035  0.012  0.000  0.037  0.000  0.000  0.000  0.000  0.000  0.084
    4  0.035  0.012  0.000  0.037  0.000  0.000  0.000  0.000  0.000  0.084
    5  0.035  0.012  0.000  0.037  0.000  0.000  0.000  0.000  0.000  0.084
    6  0.035  0.012  0.000  0.037  0.000  0.000  0.000  0.000  0.000  0.084
    7  0.035  0.012  0.000  0.037  0.000  0.000  0.000  0.000  0.000  0.084
    8  0.035  0.012  0.000  0.037  0.000  0.000  0.000  0.000  0.000  0.084
tot    0.276  0.098  0.000  0.295  0.000  0.000  0.000  0.000  0.000  0.669

band     8 # energy  -10.37261858 # occ.  2.00000000

ion      s     py     pz     px    dxy    dyz    dz2    dxz  x2-y2    tot
    1  0.000  0.000  0.054  0.000  0.000  0.000  0.000  0.000  0.000  0.054
    2  0.000  0.000  0.054  0.000  0.000  0.000  0.000  0.000  0.000  0.054
    3  0.000  0.000  0.054  0.000  0.000  0.000  0.000  0.000  0.000  0.054
    4  0.000  0.000  0.054  0.000  0.000  0.000  0.000  0.000  0.000  0.054
    5  0.000  0.000  0.054  0.000  0.000  0.000  0.000  0.000  0.000  0.054
    6  0.000  0.000  0.054  0.000  0.000  0.000  0.000  0.000  0.000  0.054
    7  0.000  0.000  0.054  0.000  0.000  0.000  0.000  0.000  0.000  0.054
    8  0.000  0.000  0.054  0.000  0.000  0.000  0.000  0.000  0.000  0.054
tot    0.000  0.000  0.432  0.000  0.000  0.000  0.000  0.000  0.000  0.432

band     9 # energy   -9.15815629 # occ.  2.00000000

ion      s     py     pz     px    dxy    dyz    dz2    dxz  x2-y2    tot
    1  0.000  0.074  0.000  0.025  0.000  0.000  0.000  0.000  0.000  0.098
    2  0.000  0.074  0.000  0.025  0.000  0.000  0.000  0.000  0.000  0.098
    3  0.000  0.074  0.000  0.025  0.000  0.000  0.000  0.000  0.000  0.098
    4  0.000  0.074  0.000  0.025  0.000  0.000  0.000  0.000  0.000  0.098
    5  0.000  0.074  0.000  0.025  0.000  0.000  0.000  0.000  0.000  0.098
    6  0.000  0.074  0.000  0.025  0.000  0.000  0.000  0.000  0.000  0.098
    7  0.000  0.074  0.000  0.025  0.000  0.000  0.000  0.000  0.000  0.098
    8  0.000  0.074  0.000  0.025  0.000  0.000  0.000  0.000  0.000  0.098
tot    0.000  0.590  0.000  0.197  0.000  0.000  0.000  0.000  0.000  0.787

band    10 # energy   -9.15815609 # occ.  2.00000000

ion      s     py     pz     px    dxy    dyz    dz2    dxz  x2-y2    tot
    1  0.000  0.051  0.000  0.010  0.000  0.000  0.000  0.000  0.000  0.061
    2  0.000  0.051  0.000  0.085  0.000  0.000  0.000  0.000  0.000  0.136
    3  0.000  0.051  0.000  0.085  0.000  0.000  0.000  0.000  0.000  0.136
    4  0.000  0.051  0.000  0.010  0.000  0.000  0.000  0.000  0.000  0.061
    5  0.000  0.051  0.000  0.010  0.000  0.000  0.000  0.000  0.000  0.061
    6  0.000  0.051  0.000  0.085  0.000  0.000  0.000  0.000  0.000  0.136
    7  0.000  0.051  0.000  0.085  0.000  0.000  0.000  0.000  0.000  0.136
    8  0.000  0.051  0.000  0.010  0.000  0.000  0.000  0.000  0.000  0.061
tot    0.000  0.409  0.000  0.378  0.000  0.000  0.000  0.000  0.000  0.787

band    11 # energy   -9.15815609 # occ.  2.00000000

ion      s     py     pz     px    dxy    dyz    dz2    dxz  x2-y2    tot
    1  0.000  0.023  0.000  0.113  0.000  0.000  0.000  0.000  0.000  0.136
    2  0.000  0.023  0.000  0.038  0.000  0.000  0.000  0.000  0.000  0.061
    3  0.000  0.023  0.000  0.038  0.000  0.000  0.000  0.000  0.000  0.061
    4  0.000  0.023  0.000  0.113  0.000  0.000  0.000  0.000  0.000  0.136
    5  0.000  0.023  0.000  0.113  0.000  0.000  0.000  0.000  0.000  0.136
    6  0.000  0.023  0.000  0.038  0.000  0.000  0.000  0.000  0.000  0.061
    7  0.000  0.023  0.000  0.038  0.000  0.000  0.000  0.000  0.000  0.061
    8  0.000  0.023  0.000  0.113  0.000  0.000  0.000  0.000  0.000  0.136
tot    0.000  0.181  0.000  0.606  0.000  0.000  0.000  0.000  0.000  0.787

band    12 # energy   -5.77311864 # occ.  2.00000000

ion      s     py     pz     px    dxy    dyz    dz2    dxz  x2-y2    tot
    1  0.000  0.077  0.000  0.026  0.000  0.000  0.000  0.000  0.000  0.103
    2  0.000  0.077  0.000  0.026  0.000  0.000  0.000  0.000  0.000  0.103
    3  0.000  0.077  0.000  0.026  0.000  0.000  0.000  0.000  0.000  0.103
    4  0.000  0.077  0.000  0.026  0.000  0.000  0.000  0.000  0.000  0.103
    5  0.000  0.077  0.000  0.026  0.000  0.000  0.000  0.000  0.000  0.103
    6  0.000  0.077  0.000  0.026  0.000  0.000  0.000  0.000  0.000  0.103
    7  0.000  0.077  0.000  0.026  0.000  0.000  0.000  0.000  0.000  0.103
    8  0.000  0.077  0.000  0.026  0.000  0.000  0.000  0.000  0.000  0.103
tot    0.000  0.620  0.000  0.207  0.000  0.000  0.000  0.000  0.000  0.827

band    13 # energy   -5.77311837 # occ.  2.00000000

ion      s     py     pz     px    dxy    dyz    dz2    dxz  x2-y2    tot
    1  0.000  0.026  0.000  0.077  0.000  0.000  0.000  0.000  0.000  0.103
    2  0.000  0.026  0.000  0.077  0.000  0.000  0.000  0.000  0.000  0.103
    3  0.000  0.026  0.000  0.077  0.000  0.000  0.000  0.000  0.000  0.103
    4  0.000  0.026  0.000  0.077  0.000  0.000  0.000  0.000  0.000  0.103
    5  0.000  0.026  0.000  0.077  0.000  0.000  0.000  0.000  0.000  0.103
    6  0.000  0.026  0.000  0.077  0.000  0.000  0.000  0.000  0.000  0.103
    7  0.000  0.026  0.000  0.077  0.000  0.000  0.000  0.000  0.000  0.103
    8  0.000  0.026  0.000  0.077  0.000  0.000  0.000  0.000  0.000  0.103
tot    0.000  0.207  0.000  0.620  0.000  0.000  0.000  0.000  0.000  0.827

band    14 # energy   -5.10675062 # occ.  2.00000000

ion      s     py     pz     px    dxy    dyz    dz2    dxz  x2-y2    tot
    1  0.000  0.000  0.005  0.000  0.000  0.000  0.000  0.000  0.000  0.005
    2  0.000  0.000  0.123  0.000  0.000  0.000  0.000  0.000  0.000  0.123
    3  0.000  0.000  0.123  0.000  0.000  0.000  0.000  0.000  0.000  0.123
    4  0.000  0.000  0.005  0.000  0.000  0.000  0.000  0.000  0.000  0.005
    5  0.000  0.000  0.005  0.000  0.000  0.000  0.000  0.000  0.000  0.005
    6  0.000  0.000  0.123  0.000  0.000  0.000  0.000  0.000  0.000  0.123
    7  0.000  0.000  0.123  0.000  0.000  0.000  0.000  0.000  0.000  0.123
    8  0.000  0.000  0.005  0.000  0.000  0.000  0.000  0.000  0.000  0.005
tot    0.000  0.000  0.512  0.000  0.000  0.000  0.000  0.000  0.000  0.512

band    15 # energy   -5.10675062 # occ.  2.00000000

ion      s     py     pz     px    dxy    dyz    dz2    dxz  x2-y2    tot
    1  0.000  0.000  0.123  0.000  0.000  0.000  0.000  0.000  0.000  0.123
    2  0.000  0.000  0.005  0.000  0.000  0.000  0.000  0.000  0.000  0.005
    3  0.000  0.000  0.005  0.000  0.000  0.000  0.000  0.000  0.000  0.005
    4  0.000  0.000  0.123  0.000  0.000  0.000  0.000  0.000  0.000  0.123
    5  0.000  0.000  0.123  0.000  0.000  0.000  0.000  0.000  0.000  0.123
    6  0.000  0.000  0.005  0.000  0.000  0.000  0.000  0.000  0.000  0.005
    7  0.000  0.000  0.005  0.000  0.000  0.000  0.000  0.000  0.000  0.005
    8  0.000  0.000  0.123  0.000  0.000  0.000  0.000  0.000  0.000  0.123
tot    0.000  0.000  0.512  0.000  0.000  0.000  0.000  0.000  0.000  0.512

band    16 # energy   -5.10675060 # occ.  2.00000000

ion      s     py     pz     px    dxy    dyz    dz2    dxz  x2-y2    tot
    1  0.000  0.000  0.064  0.000  0.000  0.000  0.000  0.000  0.000  0.064
    2  0.000  0.000  0.064  0.000  0.000  0.000  0.000  0.000  0.000  0.064
    3  0.000  0.000  0.064  0.000  0.000  0.000  0.000  0.000  0.000  0.064
    4  0.000  0.000  0.064  0.000  0.000  0.000  0.000  0.000  0.000  0.064
    5  0.000  0.000  0.064  0.000  0.000  0.000  0.000  0.000  0.000  0.064
    6  0.000  0.000  0.064  0.000  0.000  0.000  0.000  0.000  0.000  0.064
    7  0.000  0.000  0.064  0.000  0.000  0.000  0.000  0.000  0.000  0.064
    8  0.000  0.000  0.064  0.000  0.000  0.000  0.000  0.000  0.000  0.064
tot    0.000  0.000  0.512  0.000  0.000  0.000  0.000  0.000  0.000  0.512

band    17 # energy   -1.06078880 # occ.  0.00000000

ion      s     py     pz     px    dxy    dyz    dz2    dxz  x2-y2    tot
    1  0.000  0.000  0.056  0.000  0.000  0.000  0.000  0.000  0.000  0.056
    2  0.000  0.000  0.056  0.000  0.000  0.000  0.000  0.000  0.000  0.056
    3  0.000  0.000  0.056  0.000  0.000  0.000  0.000  0.000  0.000  0.056
    4  0.000  0.000  0.056  0.000  0.000  0.000  0.000  0.000  0.000  0.056
    5  0.000  0.000  0.056  0.000  0.000  0.000  0.000  0.000  0.000  0.056
    6  0.000  0.000  0.056  0.000  0.000  0.000  0.000  0.000  0.000  0.056
    7  0.000  0.000  0.056  0.000  0.000  0.000  0.000  0.000  0.000  0.056
    8  0.000  0.000  0.056  0.000  0.000  0.000  0.000  0.000  0.000  0.056
tot    0.000  0.000  0.449  0.000  0.000  0.000  0.000  0.000  0.000  0.449

band    18 # energy   -1.06078876 # occ.  0.00000000

ion      s     py     pz     px    dxy    dyz    dz2    dxz  x2-y2    tot
    1  0.000  0.000  0.009  0.000  0.000  0.000  0.000  0.000  0.000  0.009
    2  0.000  0.000  0.103  0.000  0.000  0.000  0.000  0.000  0.000  0.103
    3  0.000  0.000  0.103  0.000  0.000  0.000  0.000  0.000  0.000  0.103
    4  0.000  0.000  0.009  0.000  0.000  0.000  0.000  0.000  0.000  0.009
    5  0.000  0.000  0.009  0.000  0.000  0.000  0.000  0.000  0.000  0.009
    6  0.000  0.000  0.103  0.000  0.000  0.000  0.000  0.000  0.000  0.103
    7  0.000  0.000  0.103  0.000  0.000  0.000  0.000  0.000  0.000  0.103
    8  0.000  0.000  0.009  0.000  0.000  0.000  0.000  0.000  0.000  0.009
tot    0.000  0.000  0.449  0.000  0.000  0.000  0.000  0.000  0.000  0.449

band    19 # energy   -1.06078876 # occ.  0.00000000

ion      s     py     pz     px    dxy    dyz    dz2    dxz  x2-y2    tot
    1  0.000  0.000  0.103  0.000  0.000  0.000  0.000  0.000  0.000  0.103
    2  0.000  0.000  0.009  0.000  0.000  0.000  0.000  0.000  0.000  0.009
    3  0.000  0.000  0.009  0.000  0.000  0.000  0.000  0.000  0.000  0.009
    4  0.000  0.000  0.103  0.000  0.000  0.000  0.000  0.000  0.000  0.103
    5  0.000  0.000  0.103  0.000  0.000  0.000  0.000  0.000  0.000  0.103
    6  0.000  0.000  0.009  0.000  0.000  0.000  0.000  0.000  0.000  0.009
    7  0.000  0.000  0.009  0.000  0.000  0.000  0.000  0.000  0.000  0.009
    8  0.000  0.000  0.103  0.000  0.000  0.000  0.000  0.000  0.000  0.103
tot    0.000  0.000  0.449  0.000  0.000  0.000  0.000  0.000  0.000  0.449

band    20 # energy    0.51736360 # occ.  0.00000000

ion      s     py     pz     px    dxy    dyz    dz2    dxz  x2-y2    tot
    1  0.002  0.000  0.000  0.000  0.000  0.000  0.000  0.000  0.000  0.002
    2  0.002  0.000  0.000  0.000  0.000  0.000  0.000  0.000  0.000  0.002
    3  0.002  0.000  0.000  0.000  0.000  0.000  0.000  0.000  0.000  0.002
    4  0.002  0.000  0.000  0.000  0.000  0.000  0.000  0.000  0.000  0.002
    5  0.002  0.000  0.000  0.000  0.000  0.000  0.000  0.000  0.000  0.002
    6  0.002  0.000  0.000  0.000  0.000  0.000  0.000  0.000  0.000  0.002
    7  0.002  0.000  0.000  0.000  0.000  0.000  0.000  0.000  0.000  0.002
    8  0.002  0.000  0.000  0.000  0.000  0.000  0.000  0.000  0.000  0.002
tot    0.020  0.000  0.000  0.000  0.000  0.000  0.000  0.000  0.000  0.020

band    21 # energy    1.30654491 # occ.  0.00000000

ion      s     py     pz     px    dxy    dyz    dz2    dxz  x2-y2    tot
    1  0.000  0.000  0.003  0.000  0.000  0.000  0.000  0.000  0.000  0.003
    2  0.000  0.000  0.003  0.000  0.000  0.000  0.000  0.000  0.000  0.003
    3  0.000  0.000  0.003  0.000  0.000  0.000  0.000  0.000  0.000  0.003
    4  0.000  0.000  0.003  0.000  0.000  0.000  0.000  0.000  0.000  0.003
    5  0.000  0.000  0.003  0.000  0.000  0.000  0.000  0.000  0.000  0.003
    6  0.000  0.000  0.003  0.000  0.000  0.000  0.000  0.000  0.000  0.003
    7  0.000  0.000  0.003  0.000  0.000  0.000  0.000  0.000  0.000  0.003
    8  0.000  0.000  0.003  0.000  0.000  0.000  0.000  0.000  0.000  0.003
tot    0.000  0.000  0.022  0.000  0.000  0.000  0.000  0.000  0.000  0.022

band    22 # energy    1.63078559 # occ.  0.00000000

ion      s     py     pz     px    dxy    dyz    dz2    dxz  x2-y2    tot
    1  0.000  0.000  0.000  0.000  0.000  0.000  0.000  0.000  0.000  0.000
    2  0.000  0.000  0.000  0.000  0.000  0.000  0.000  0.000  0.000  0.000
    3  0.000  0.000  0.000  0.000  0.000  0.000  0.000  0.000  0.000  0.000
    4  0.000  0.000  0.000  0.000  0.000  0.000  0.000  0.000  0.000  0.000
    5  0.000  0.000  0.000  0.000  0.000  0.000  0.000  0.000  0.000  0.000
    6  0.000  0.000  0.000  0.000  0.000  0.000  0.000  0.000  0.000  0.000
    7  0.000  0.000  0.000  0.000  0.000  0.000  0.000  0.000  0.000  0.000
    8  0.000  0.000  0.000  0.000  0.000  0.000  0.000  0.000  0.000  0.000
tot    0.002  0.000  0.000  0.000  0.000  0.000  0.000  0.000  0.000  0.002

band    23 # energy    2.55191782 # occ.  0.00000000

ion      s     py     pz     px    dxy    dyz    dz2    dxz  x2-y2    tot
    1  0.000  0.000  0.002  0.000  0.000  0.000  0.000  0.000  0.000  0.002
    2  0.000  0.000  0.002  0.000  0.000  0.000  0.000  0.000  0.000  0.002
    3  0.000  0.000  0.002  0.000  0.000  0.000  0.000  0.000  0.000  0.002
    4  0.000  0.000  0.002  0.000  0.000  0.000  0.000  0.000  0.000  0.002
    5  0.000  0.000  0.002  0.000  0.000  0.000  0.000  0.000  0.000  0.002
    6  0.000  0.000  0.002  0.000  0.000  0.000  0.000  0.000  0.000  0.002
    7  0.000  0.000  0.002  0.000  0.000  0.000  0.000  0.000  0.000  0.002
    8  0.000  0.000  0.002  0.000  0.000  0.000  0.000  0.000  0.000  0.002
tot    0.000  0.000  0.017  0.000  0.000  0.000  0.000  0.000  0.000  0.017

band    24 # energy    3.01657225 # occ.  0.00000000

ion      s     py     pz     px    dxy    dyz    dz2    dxz  x2-y2    tot
    1  0.001  0.000  0.000  0.000  0.000  0.000  0.000  0.000  0.000  0.001
    2  0.001  0.000  0.000  0.000  0.000  0.000  0.000  0.000  0.000  0.001
    3  0.001  0.000  0.000  0.000  0.000  0.000  0.000  0.000  0.000  0.001
    4  0.001  0.000  0.000  0.000  0.000  0.000  0.000  0.000  0.000  0.001
    5  0.001  0.000  0.000  0.000  0.000  0.000  0.000  0.000  0.000  0.001
    6  0.001  0.000  0.000  0.000  0.000  0.000  0.000  0.000  0.000  0.001
    7  0.001  0.000  0.000  0.000  0.000  0.000  0.000  0.000  0.000  0.001
    8  0.001  0.000  0.000  0.000  0.000  0.000  0.000  0.000  0.000  0.001
tot    0.007  0.000  0.000  0.000  0.000  0.000  0.000  0.000  0.000  0.007

band    25 # energy    4.64493516 # occ.  0.00000000

ion      s     py     pz     px    dxy    dyz    dz2    dxz  x2-y2    tot
    1  0.010  0.012  0.000  0.002  0.000  0.000  0.000  0.000  0.000  0.024
    2  0.083  0.004  0.000  0.002  0.000  0.000  0.000  0.000  0.000  0.089
    3  0.083  0.004  0.000  0.002  0.000  0.000  0.000  0.000  0.000  0.089
    4  0.010  0.012  0.000  0.002  0.000  0.000  0.000  0.000  0.000  0.024
    5  0.010  0.012  0.000  0.002  0.000  0.000  0.000  0.000  0.000  0.024
    6  0.083  0.004  0.000  0.002  0.000  0.000  0.000  0.000  0.000  0.089
    7  0.083  0.004  0.000  0.002  0.000  0.000  0.000  0.000  0.000  0.089
    8  0.010  0.012  0.000  0.002  0.000  0.000  0.000  0.000  0.000  0.024
tot    0.370  0.068  0.000  0.013  0.000  0.000  0.000  0.000  0.000  0.451

band    26 # energy    4.64493516 # occ.  0.00000000

ion      s     py     pz     px    dxy    dyz    dz2    dxz  x2-y2    tot
    1  0.083  0.000  0.000  0.006  0.000  0.000  0.000  0.000  0.000  0.089
    2  0.010  0.008  0.000  0.006  0.000  0.000  0.000  0.000  0.000  0.024
    3  0.010  0.008  0.000  0.006  0.000  0.000  0.000  0.000  0.000  0.024
    4  0.083  0.000  0.000  0.006  0.000  0.000  0.000  0.000  0.000  0.089
    5  0.083  0.000  0.000  0.006  0.000  0.000  0.000  0.000  0.000  0.089
    6  0.010  0.008  0.000  0.006  0.000  0.000  0.000  0.000  0.000  0.024
    7  0.010  0.008  0.000  0.006  0.000  0.000  0.000  0.000  0.000  0.024
    8  0.083  0.000  0.000  0.006  0.000  0.000  0.000  0.000  0.000  0.089
tot    0.370  0.033  0.000  0.048  0.000  0.000  0.000  0.000  0.000  0.451

band    27 # energy    4.64493521 # occ.  0.00000000

ion      s     py     pz     px    dxy    dyz    dz2    dxz  x2-y2    tot
    1  0.046  0.003  0.000  0.008  0.000  0.000  0.000  0.000  0.000  0.056
    2  0.046  0.003  0.000  0.008  0.000  0.000  0.000  0.000  0.000  0.056
    3  0.046  0.003  0.000  0.008  0.000  0.000  0.000  0.000  0.000  0.056
    4  0.046  0.003  0.000  0.008  0.000  0.000  0.000  0.000  0.000  0.056
    5  0.046  0.003  0.000  0.008  0.000  0.000  0.000  0.000  0.000  0.056
    6  0.046  0.003  0.000  0.008  0.000  0.000  0.000  0.000  0.000  0.056
    7  0.046  0.003  0.000  0.008  0.000  0.000  0.000  0.000  0.000  0.056
    8  0.046  0.003  0.000  0.008  0.000  0.000  0.000  0.000  0.000  0.056
tot    0.370  0.020  0.000  0.061  0.000  0.000  0.000  0.000  0.000  0.451

band    28 # energy    4.68694041 # occ.  0.00000000

ion      s     py     pz     px    dxy    dyz    dz2    dxz  x2-y2    tot
    1  0.000  0.000  0.003  0.000  0.000  0.000  0.000  0.000  0.000  0.003
    2  0.000  0.000  0.003  0.000  0.000  0.000  0.000  0.000  0.000  0.003
    3  0.000  0.000  0.003  0.000  0.000  0.000  0.000  0.000  0.000  0.003
    4  0.000  0.000  0.003  0.000  0.000  0.000  0.000  0.000  0.000  0.003
    5  0.000  0.000  0.003  0.000  0.000  0.000  0.000  0.000  0.000  0.003
    6  0.000  0.000  0.003  0.000  0.000  0.000  0.000  0.000  0.000  0.003
    7  0.000  0.000  0.003  0.000  0.000  0.000  0.000  0.000  0.000  0.003
    8  0.000  0.000  0.003  0.000  0.000  0.000  0.000  0.000  0.000  0.003
tot    0.000  0.000  0.025  0.000  0.000  0.000  0.000  0.000  0.000  0.025

band    29 # energy    5.30622525 # occ.  0.00000000

ion      s     py     pz     px    dxy    dyz    dz2    dxz  x2-y2    tot
    1  0.001  0.000  0.000  0.000  0.000  0.000  0.000  0.000  0.000  0.001
    2  0.001  0.000  0.000  0.000  0.000  0.000  0.000  0.000  0.000  0.001
    3  0.001  0.000  0.000  0.000  0.000  0.000  0.000  0.000  0.000  0.001
    4  0.001  0.000  0.000  0.000  0.000  0.000  0.000  0.000  0.000  0.001
    5  0.001  0.000  0.000  0.000  0.000  0.000  0.000  0.000  0.000  0.001
    6  0.001  0.000  0.000  0.000  0.000  0.000  0.000  0.000  0.000  0.001
    7  0.001  0.000  0.000  0.000  0.000  0.000  0.000  0.000  0.000  0.001
    8  0.001  0.000  0.000  0.000  0.000  0.000  0.000  0.000  0.000  0.001
tot    0.011  0.000  0.000  0.000  0.000  0.000  0.000  0.000  0.000  0.011

band    30 # energy    5.61151615 # occ.  0.00000000

ion      s     py     pz     px    dxy    dyz    dz2    dxz  x2-y2    tot
    1  0.000  0.049  0.000  0.016  0.000  0.000  0.000  0.000  0.000  0.066
    2  0.000  0.049  0.000  0.016  0.000  0.000  0.000  0.000  0.000  0.066
    3  0.000  0.049  0.000  0.016  0.000  0.000  0.000  0.000  0.000  0.066
    4  0.000  0.049  0.000  0.016  0.000  0.000  0.000  0.000  0.000  0.066
    5  0.000  0.049  0.000  0.016  0.000  0.000  0.000  0.000  0.000  0.066
    6  0.000  0.049  0.000  0.016  0.000  0.000  0.000  0.000  0.000  0.066
    7  0.000  0.049  0.000  0.016  0.000  0.000  0.000  0.000  0.000  0.066
    8  0.000  0.049  0.000  0.016  0.000  0.000  0.000  0.000  0.000  0.066
tot    0.000  0.395  0.000  0.132  0.000  0.000  0.000  0.000  0.000  0.527

band    31 # energy    5.61151674 # occ.  0.00000000

ion      s     py     pz     px    dxy    dyz    dz2    dxz  x2-y2    tot
    1  0.000  0.016  0.000  0.049  0.000  0.000  0.000  0.000  0.000  0.066
    2  0.000  0.016  0.000  0.049  0.000  0.000  0.000  0.000  0.000  0.066
    3  0.000  0.016  0.000  0.049  0.000  0.000  0.000  0.000  0.000  0.066
    4  0.000  0.016  0.000  0.049  0.000  0.000  0.000  0.000  0.000  0.066
    5  0.000  0.016  0.000  0.049  0.000  0.000  0.000  0.000  0.000  0.066
    6  0.000  0.016  0.000  0.049  0.000  0.000  0.000  0.000  0.000  0.066
    7  0.000  0.016  0.000  0.049  0.000  0.000  0.000  0.000  0.000  0.066
    8  0.000  0.016  0.000  0.049  0.000  0.000  0.000  0.000  0.000  0.066
tot    0.000  0.132  0.000  0.395  0.000  0.000  0.000  0.000  0.000  0.527

band    32 # energy    7.63892462 # occ.  0.00000000

ion      s     py     pz     px    dxy    dyz    dz2    dxz  x2-y2    tot
    1  0.000  0.000  0.004  0.000  0.000  0.000  0.000  0.000  0.000  0.004
    2  0.000  0.000  0.004  0.000  0.000  0.000  0.000  0.000  0.000  0.004
    3  0.000  0.000  0.004  0.000  0.000  0.000  0.000  0.000  0.000  0.004
    4  0.000  0.000  0.004  0.000  0.000  0.000  0.000  0.000  0.000  0.004
    5  0.000  0.000  0.004  0.000  0.000  0.000  0.000  0.000  0.000  0.004
    6  0.000  0.000  0.004  0.000  0.000  0.000  0.000  0.000  0.000  0.004
    7  0.000  0.000  0.004  0.000  0.000  0.000  0.000  0.000  0.000  0.004
    8  0.000  0.000  0.004  0.000  0.000  0.000  0.000  0.000  0.000  0.004
tot    0.000  0.000  0.035  0.000  0.000  0.000  0.000  0.000  0.000  0.035

band    33 # energy    8.37928925 # occ.  0.00000000

ion      s     py     pz     px    dxy    dyz    dz2    dxz  x2-y2    tot
    1  0.001  0.003  0.000  0.001  0.000  0.000  0.000  0.000  0.000  0.005
    2  0.002  0.001  0.000  0.001  0.000  0.000  0.000  0.000  0.000  0.004
    3  0.002  0.001  0.000  0.001  0.000  0.000  0.000  0.000  0.000  0.004
    4  0.001  0.003  0.000  0.001  0.000  0.000  0.000  0.000  0.000  0.005
    5  0.001  0.003  0.000  0.001  0.000  0.000  0.000  0.000  0.000  0.005
    6  0.002  0.001  0.000  0.001  0.000  0.000  0.000  0.000  0.000  0.004
    7  0.002  0.001  0.000  0.001  0.000  0.000  0.000  0.000  0.000  0.004
    8  0.001  0.003  0.000  0.001  0.000  0.000  0.000  0.000  0.000  0.005
tot    0.009  0.018  0.000  0.011  0.000  0.000  0.000  0.000  0.000  0.038

band    34 # energy    8.37928925 # occ.  0.00000000

ion      s     py     pz     px    dxy    dyz    dz2    dxz  x2-y2    tot
    1  0.002  0.001  0.000  0.001  0.000  0.000  0.000  0.000  0.000  0.004
    2  0.001  0.003  0.000  0.001  0.000  0.000  0.000  0.000  0.000  0.005
    3  0.001  0.003  0.000  0.001  0.000  0.000  0.000  0.000  0.000  0.005
    4  0.002  0.001  0.000  0.001  0.000  0.000  0.000  0.000  0.000  0.004
    5  0.002  0.001  0.000  0.001  0.000  0.000  0.000  0.000  0.000  0.004
    6  0.001  0.003  0.000  0.001  0.000  0.000  0.000  0.000  0.000  0.005
    7  0.001  0.003  0.000  0.001  0.000  0.000  0.000  0.000  0.000  0.005
    8  0.002  0.001  0.000  0.001  0.000  0.000  0.000  0.000  0.000  0.004
tot    0.009  0.018  0.000  0.010  0.000  0.000  0.000  0.000  0.000  0.038

band    35 # energy    8.37929622 # occ.  0.00000000

ion      s     py     pz     px    dxy    dyz    dz2    dxz  x2-y2    tot
    1  0.001  0.001  0.000  0.003  0.000  0.000  0.000  0.000  0.000  0.005
    2  0.001  0.001  0.000  0.003  0.000  0.000  0.000  0.000  0.000  0.005
    3  0.001  0.001  0.000  0.003  0.000  0.000  0.000  0.000  0.000  0.005
    4  0.001  0.001  0.000  0.003  0.000  0.000  0.000  0.000  0.000  0.005
    5  0.001  0.001  0.000  0.003  0.000  0.000  0.000  0.000  0.000  0.005
    6  0.001  0.001  0.000  0.003  0.000  0.000  0.000  0.000  0.000  0.005
    7  0.001  0.001  0.000  0.003  0.000  0.000  0.000  0.000  0.000  0.005
    8  0.001  0.001  0.000  0.003  0.000  0.000  0.000  0.000  0.000  0.005
tot    0.009  0.007  0.000  0.021  0.000  0.000  0.000  0.000  0.000  0.038

band    36 # energy    8.43537592 # occ.  0.00000000

ion      s     py     pz     px    dxy    dyz    dz2    dxz  x2-y2    tot
    1  0.002  0.000  0.000  0.000  0.000  0.000  0.000  0.000  0.000  0.002
    2  0.002  0.000  0.000  0.000  0.000  0.000  0.000  0.000  0.000  0.002
    3  0.002  0.000  0.000  0.000  0.000  0.000  0.000  0.000  0.000  0.002
    4  0.002  0.000  0.000  0.000  0.000  0.000  0.000  0.000  0.000  0.002
    5  0.002  0.000  0.000  0.000  0.000  0.000  0.000  0.000  0.000  0.002
    6  0.002  0.000  0.000  0.000  0.000  0.000  0.000  0.000  0.000  0.002
    7  0.002  0.000  0.000  0.000  0.000  0.000  0.000  0.000  0.000  0.002
    8  0.002  0.000  0.000  0.000  0.000  0.000  0.000  0.000  0.000  0.002
tot    0.012  0.000  0.000  0.000  0.000  0.000  0.000  0.000  0.000  0.012

band    37 # energy    8.53293540 # occ.  0.00000000

ion      s     py     pz     px    dxy    dyz    dz2    dxz  x2-y2    tot
    1  0.000  0.001  0.000  0.003  0.000  0.000  0.000  0.000  0.000  0.004
    2  0.000  0.001  0.000  0.003  0.000  0.000  0.000  0.000  0.000  0.004
    3  0.000  0.001  0.000  0.003  0.000  0.000  0.000  0.000  0.000  0.004
    4  0.000  0.001  0.000  0.003  0.000  0.000  0.000  0.000  0.000  0.004
    5  0.000  0.001  0.000  0.003  0.000  0.000  0.000  0.000  0.000  0.004