<?xml version="1.0" encoding="ISO-8859-1"?>
<modeling>
 <generator>
  <i name="program" type="string">vasp </i>
  <i name="version" type="string">5.4.4.18Apr17-6-g9f103f2a35  </i>
  <i name="subversion" type="string">(build May 21 2018 15:16:00) complex            parallel </i>
  <i name="platform" type="string">GUN_wannier90_optcell </i>
  <i name="date" type="string">2019 03 25 </i>
  <i name="time" type="string">13:22:18 </i>
 </generator>
 <incar>
  <i type="string" name="SYSTEM"> C</i>
  <i type="int" name="ISTART">     0</i>
  <i type="string" name="PREC">a</i>
  <i type="string" name="ALGO">     N ! Normal     algorithm</i>
  <i type="logical" name="LDIAG"> T  </i>
  <i type="int" name="NELM">  2000</i>
  <i type="int" name="NELMIN">     5</i>
  <i type="int" name="IBRION">    -1</i>
  <i name="EDIFF">      0.00000100</i>
  <i name="EDIFFG">     -0.01000000</i>
  <i type="int" name="NSW">     0</i>
  <i type="int" name="NBLOCK">     1</i>
  <i type="int" name="KBLOCK">     5</i>
  <i name="ENCUT">    400.00000000</i>
  <i type="int" name="NBANDS">    64</i>
  <i name="POTIM">      0.50000000</i>
  <i type="int" name="NEDOS">  3000</i>
  <i type="logical" name="LREAL"> F  </i>
  <i name="EMIN">    -15.00000000</i>
  <i name="EMAX">      5.00000000</i>
  <i type="int" name="ISMEAR">    -5</i>
  <i type="int" name="NWRITE">     1</i>
  <i type="logical" name="LCORR"> T  </i>
  <i type="logical" name="LWAVE"> T  </i>
  <i type="logical" name="LCHARG"> T  </i>
  <i type="int" name="LORBIT">    11</i>
  <v type="int" name="KPOINT_BSE">    -1     0     0     0</v>
  <i type="int" name="NELM">  2000</i>
 </incar>
 <structure name="primitive_cell" >
  <crystal>
   <varray name="basis" >
    <v>       2.46470830       0.00000000       0.00000000 </v>
    <v>      -1.23235415       2.13450000       0.00000000 </v>
    <v>       0.00000000       0.00000000      20.00000000 </v>
   </varray>
   <i name="volume">    105.21839729 </i>
   <varray name="rec_basis" >
    <v>       0.40572753       0.23424690      -0.00000000 </v>
    <v>       0.00000000       0.46849379       0.00000000 </v>
    <v>       0.00000000      -0.00000000       0.05000000 </v>
   </varray>
  </crystal>
  <varray name="positions" >
   <v>      -0.33333333       0.33333333      -0.50000000 </v>
   <v>       0.33333333      -0.33333333      -0.50000000 </v>
  </varray>
 </structure>
 <varray name="primitive_index" >
  <v type="int" >        1 </v>
  <v type="int" >        5 </v>
 </varray>
 <kpoints>
  <generation param="Gamma">
   <v type="int" name="divisions">       4        4        1 </v>
   <v name="usershift">      0.00000000       0.00000000       0.00000000 </v>
   <v name="genvec1">      0.25000000       0.00000000       0.00000000 </v>
   <v name="genvec2">      0.00000000       0.25000000       0.00000000 </v>
   <v name="genvec3">      0.00000000       0.00000000       1.00000000 </v>
   <v name="shift">      0.00000000       0.00000000       0.00000000 </v>
  </generation>
  <varray name="kpointlist" >
   <v>       0.00000000       0.00000000       0.00000000 </v>
   <v>       0.25000000       0.00000000       0.00000000 </v>
   <v>       0.50000000       0.00000000       0.00000000 </v>
   <v>       0.25000000       0.25000000       0.00000000 </v>
  </varray>
  <varray name="weights" >
   <v>       0.06250000 </v>
   <v>       0.37500000 </v>
   <v>       0.18750000 </v>
   <v>       0.37500000 </v>
  </varray>
  <varray name="tetrahedronlist"  type="int" >
   <v type="int" >       12        2        2        2        4 </v>
   <v type="int" >       12        1        2        2        2 </v>
   <v type="int" >        6        1        1        2        2 </v>
   <v type="int" >        6        2        2        4        4 </v>
   <v type="int" >       12        3        4        4        4 </v>
   <v type="int" >       12        2        3        4        4 </v>
   <v type="int" >       12        2        2        3        4 </v>
   <v type="int" >        6        3        3        4        4 </v>
   <v type="int" >       12        2        3        3        4 </v>
   <v type="int" >        6        4        4        4        4 </v>
  </varray>
  <i name="volumeweight">      0.01041667 </i>
 </kpoints>
 <parameters>
  <separator name="general" >
   <i type="string" name="SYSTEM">C</i>
   <i type="logical" name="LCOMPAT"> F  </i>
  </separator>
  <separator name="electronic" >
   <i type="string" name="PREC">a</i>
   <i name="ENMAX">    400.00000000</i>
   <i name="ENAUG">    644.87300000</i>
   <i name="EDIFF">      0.00000100</i>
   <i type="int" name="IALGO">    38</i>
   <i type="int" name="IWAVPR">    10</i>
   <i type="int" name="NBANDS">    64</i>
   <i name="NELECT">     32.00000000</i>
   <i type="int" name="TURBO">     0</i>
   <i type="int" name="IRESTART">     0</i>
   <i type="int" name="NREBOOT">     0</i>
   <i type="int" name="NMIN">     0</i>
   <i name="EREF">      0.00000000</i>
   <separator name="electronic smearing" >
    <i type="int" name="ISMEAR">    -5</i>
    <i name="SIGMA">      0.20000000</i>
    <i name="KSPACING">      0.50000000</i>
    <i type="logical" name="KGAMMA"> T  </i>
   </separator>
   <separator name="electronic projectors" >
    <i type="logical" name="LREAL"> F  </i>
    <v name="ROPT">      0.00000000</v>
    <i type="int" name="LMAXPAW">  -100</i>
    <i type="int" name="LMAXMIX">     2</i>
    <i type="logical" name="NLSPLINE"> F  </i>
   </separator>
   <separator name="electronic startup" >
    <i type="int" name="ISTART">     0</i>
    <i type="int" name="ICHARG">     2</i>
    <i type="int" name="INIWAV">     1</i>
   </separator>
   <separator name="electronic spin" >
    <i type="int" name="ISPIN">     1</i>
    <i type="logical" name="LNONCOLLINEAR"> F  </i>
    <v name="MAGMOM">      1.00000000      1.00000000      1.00000000      1.00000000      1.00000000      1.00000000      1.00000000      1.00000000</v>
    <i name="NUPDOWN">     -1.00000000</i>
    <i type="logical" name="LSORBIT"> F  </i>
    <v name="SAXIS">      0.00000000      0.00000000      1.00000000</v>
    <i type="logical" name="LSPIRAL"> F  </i>
    <v name="QSPIRAL">      0.00000000      0.00000000      0.00000000</v>
    <i type="logical" name="LZEROZ"> F  </i>
   </separator>
   <separator name="electronic exchange-correlation" >
    <i type="logical" name="LASPH"> F  </i>
    <i type="logical" name="LMETAGGA"> F  </i>
   </separator>
   <separator name="electronic convergence" >
    <i type="int" name="NELM">  2000</i>
    <i type="int" name="NELMDL">    -5</i>
    <i type="int" name="NELMIN">     5</i>
    <i name="ENINI">    400.00000000</i>
    <separator name="electronic convergence detail" >
     <i type="logical" name="LDIAG"> T  </i>
     <i type="logical" name="LSUBROT"> F  </i>
     <i name="WEIMIN">      0.00000000</i>
     <i name="EBREAK">      0.00000000</i>
     <i name="DEPER">      0.30000000</i>
     <i type="int" name="NRMM">     4</i>
     <i name="TIME">      0.40000000</i>
    </separator>
   </separator>
   <separator name="electronic mixer" >
    <i name="AMIX">      0.40000000</i>
    <i name="BMIX">      1.00000000</i>
    <i name="AMIN">      0.10000000</i>
    <i name="AMIX_MAG">      1.60000000</i>
    <i name="BMIX_MAG">      1.00000000</i>
    <separator name="electronic mixer details" >
     <i type="int" name="IMIX">     4</i>
     <i type="logical" name="MIXFIRST"> F  </i>
     <i type="int" name="MAXMIX">   -45</i>
     <i name="WC">    100.00000000</i>
     <i type="int" name="INIMIX">     1</i>
     <i type="int" name="MIXPRE">     1</i>
     <i type="int" name="MREMOVE">     5</i>
    </separator>
   </separator>
   <separator name="electronic dipolcorrection" >
    <i type="logical" name="LDIPOL"> F  </i>
    <i type="logical" name="LMONO"> F  </i>
    <i type="int" name="IDIPOL">     0</i>
    <i name="EPSILON">      1.00000000</i>
    <v name="DIPOL">   -100.00000000   -100.00000000   -100.00000000</v>
    <i name="EFIELD">      0.00000000</i>
   </separator>
  </separator>
  <separator name="grids" >
   <i type="int" name="NGX">    32</i>
   <i type="int" name="NGY">    32</i>
   <i type="int" name="NGZ">   140</i>
   <i type="int" name="NGXF">    64</i>
   <i type="int" name="NGYF">    64</i>
   <i type="int" name="NGZF">   280</i>
   <i type="logical" name="ADDGRID"> F  </i>
  </separator>
  <separator name="ionic" >
   <i type="int" name="NSW">     0</i>
   <i type="int" name="IBRION">    -1</i>
   <i type="int" name="MDALGO">     0</i>
   <i type="int" name="ISIF">     2</i>
   <i name="PSTRESS">      0.00000000</i>
   <i name="EDIFFG">     -0.01000000</i>
   <i type="int" name="NFREE">     0</i>
   <i name="POTIM">      0.50000000</i>
   <i name="SMASS">     -3.00000000</i>
   <i name="SCALEE">      1.00000000</i>
  </separator>
  <separator name="ionic md" >
   <i name="TEBEG">      0.00010000</i>
   <i name="TEEND">      0.00010000</i>
   <i type="int" name="NBLOCK">     1</i>
   <i type="int" name="KBLOCK">     1</i>
   <i type="int" name="NPACO">   256</i>
   <i name="APACO">     16.00000000</i>
  </separator>
  <separator name="symmetry" >
   <i type="int" name="ISYM">     2</i>
   <i name="SYMPREC">      0.00001000</i>
  </separator>
  <separator name="dos" >
   <i type="int" name="LORBIT">    11</i>
   <v name="RWIGS">     -1.00000000</v>
   <i type="int" name="NEDOS">  3000</i>
   <i name="EMIN">    -15.00000000</i>
   <i name="EMAX">      5.00000000</i>
   <i name="EFERMI">      0.00000000</i>
  </separator>
  <separator name="writing" >
   <i type="int" name="NWRITE">     1</i>
   <i type="logical" name="LWAVE"> T  </i>
   <i type="logical" name="LDOWNSAMPLE"> F  </i>
   <i type="logical" name="LCHARG"> T  </i>
   <i type="logical" name="LPARD"> F  </i>
   <i type="logical" name="LVTOT"> F  </i>
   <i type="logical" name="LVHAR"> F  </i>
   <i type="logical" name="LELF"> F  </i>
   <i type="logical" name="LOPTICS"> F  </i>
   <v name="STM">      0.00000000      0.00000000      0.00000000      0.00000000      0.00000000      0.00000000      0.00000000</v>
  </separator>
  <separator name="performance" >
   <i type="int" name="NPAR">     2</i>
   <i type="int" name="NSIM">     4</i>
   <i type="int" name="NBLK">    -1</i>
   <i type="logical" name="LPLANE"> T  </i>
   <i type="logical" name="LSCALAPACK"> T  </i>
   <i type="logical" name="LSCAAWARE"> F  </i>
   <i type="logical" name="LSCALU"> F  </i>
   <i type="logical" name="LASYNC"> F  </i>
   <i type="logical" name="LORBITALREAL"> F  </i>
  </separator>
  <separator name="miscellaneous" >
   <i type="int" name="IDIOT">     3</i>
   <i type="int" name="ISPECIAL">     0</i>
   <i type="logical" name="LMUSIC"> F  </i>
   <v name="POMASS">     12.01100000</v>
   <v name="DARWINR">      0.00000000</v>
   <v name="DARWINV">      1.00000000</v>
   <i type="logical" name="LCORR"> T  </i>
  </separator>
  <i type="logical" name="GGA_COMPAT"> T  </i>
  <i type="logical" name="LBERRY"> F  </i>
  <i type="int" name="ICORELEVEL">     0</i>
  <i type="logical" name="LDAU"> F  </i>
  <i type="int" name="I_CONSTRAINED_M">     0</i>
  <separator name="electronic exchange-correlation" >
   <i type="string" name="GGA">--</i>
   <i type="int" name="VOSKOWN">     0</i>
   <i type="logical" name="LHFCALC"> F  </i>
   <i type="string" name="PRECFOCK"></i>
   <i type="logical" name="LSYMGRAD"> F  </i>
   <i type="logical" name="LHFONE"> F  </i>
   <i type="logical" name="LRHFCALC"> F  </i>
   <i type="logical" name="LTHOMAS"> F  </i>
   <i type="logical" name="LMODELHF"> F  </i>
   <i name="ENCUT4O">     -1.00000000</i>
   <i type="int" name="EXXOEP">     0</i>
   <i type="int" name="FOURORBIT">     0</i>
   <i name="AEXX">      0.00000000</i>
   <i name="HFALPHA">      0.00000000</i>
   <i name="MCALPHA">      0.00000000</i>
   <i name="ALDAX">      1.00000000</i>
   <i name="AGGAX">      1.00000000</i>
   <i name="ALDAC">      1.00000000</i>
   <i name="AGGAC">      1.00000000</i>
   <i type="int" name="NKREDX">     1</i>
   <i type="int" name="NKREDY">     1</i>
   <i type="int" name="NKREDZ">     1</i>
   <i type="logical" name="SHIFTRED"> F  </i>
   <i type="logical" name="ODDONLY"> F  </i>
   <i type="logical" name="EVENONLY"> F  </i>
   <i type="int" name="LMAXFOCK">     0</i>
   <i type="int" name="NMAXFOCKAE">     0</i>
   <i type="logical" name="LFOCKAEDFT"> F  </i>
   <i name="HFSCREEN">      0.00000000</i>
   <i name="HFSCREENC">      0.00000000</i>
   <i type="int" name="NBANDSGWLOW">     0</i>
  </separator>
  <separator name="vdW DFT" >
   <i type="logical" name="LUSE_VDW"> F  </i>
   <i name="Zab_VDW">     -0.84910000</i>
   <i name="PARAM1">      0.12340000</i>
   <i name="PARAM2">      1.00000000</i>
   <i name="PARAM3">      0.00000000</i>
  </separator>
  <separator name="model GW" >
   <i type="int" name="MODEL_GW">     0</i>
   <i name="MODEL_EPS0">     31.56551919</i>
   <i name="MODEL_ALPHA">      1.00000000</i>
  </separator>
  <separator name="linear response parameters" >
   <i type="logical" name="LEPSILON"> F  </i>
   <i type="logical" name="LRPA"> F  </i>
   <i type="logical" name="LNABLA"> F  </i>
   <i type="logical" name="LVEL"> F  </i>
   <i type="int" name="KINTER">     0</i>
   <i name="CSHIFT">      0.10000000</i>
   <i name="OMEGAMAX">     -1.00000000</i>
   <i name="DEG_THRESHOLD">      0.00200000</i>
   <i name="RTIME">     -0.10000000</i>
   <i name="WPLASMAI">      0.00000000</i>
   <v name="DFIELD">      0.00000000      0.00000000      0.00000000</v>
   <v name="WPLASMA">      0.00000000      0.00000000      0.00000000      0.00000000      0.00000000      0.00000000      0.00000000      0.00000000      0.00000000</v>
  </separator>
  <separator name="orbital magnetization" >
   <i type="logical" name="NUCIND"> F  </i>
   <v name="MAGPOS">      0.00000000      0.00000000      0.00000000</v>
   <i type="logical" name="LNICSALL"> T  </i>
   <i type="logical" name="ORBITALMAG"> F  </i>
   <i type="logical" name="LMAGBLOCH"> F  </i>
   <i type="logical" name="LCHIMAG"> F  </i>
   <i type="logical" name="LGAUGE"> T  </i>
   <i type="int" name="MAGATOM">     0</i>
   <v name="MAGDIPOL">      0.00000000      0.00000000      0.00000000</v>
   <v name="AVECCONST">      0.00000000      0.00000000      0.00000000</v>
  </separator>
  <separator name="response functions" >
   <i type="logical" name="LADDER"> F  </i>
   <i type="logical" name="LRPAFORCE"> F  </i>
   <i type="logical" name="LFXC"> F  </i>
   <i type="logical" name="LHARTREE"> T  </i>
   <i type="int" name="IBSE">     0</i>
   <v type="int" name="KPOINT">    -1     0     0     0</v>
   <i type="logical" name="LTCTE"> F  </i>
   <i type="logical" name="LTETE"> F  </i>
   <i type="logical" name="LTRIPLET"> F  </i>
   <i type="logical" name="LFXCEPS"> F  </i>
   <i type="logical" name="LFXHEG"> F  </i>
   <i type="int" name="NATURALO">     2</i>
   <i type="logical" name="L2ORDER"> F  </i>
   <i type="logical" name="LMP2LT"> F  </i>
   <i type="logical" name="LUSEW"> F  </i>
   <i name="ENCUTGW">     -2.00000000</i>
   <i name="ENCUTGWSOFT">     -2.00000000</i>
   <i name="ENCUTLF">     -1.00000000</i>
   <i type="int" name="LMAXMP2">    -1</i>
   <i name="SCISSOR">      0.00000000</i>
   <i type="int" name="NOMEGA">     0</i>
   <i type="int" name="NOMEGAR">     0</i>
   <i type="int" name="NBANDSGW">    -1</i>
   <i type="int" name="NBANDSO">    -1</i>
   <i type="int" name="NBANDSV">    -1</i>
   <i type="int" name="NELM">  2000</i>
   <i type="int" name="NELMHF">     1</i>
   <i type="int" name="DIM">     3</i>
   <i type="int" name="ANTIRES">     0</i>
   <i name="OMEGAMAX">    -30.00000000</i>
   <i name="OMEGAMIN">    -30.00000000</i>
   <i name="OMEGATL">   -200.00000000</i>
   <i type="int" name="OMEGAGRID">   140</i>
   <i name="CSHIFT">     -0.10000000</i>
   <i type="logical" name="SELFENERGY"> F  </i>
   <i type="logical" name="LSPECTRAL"> F  </i>
   <i type="logical" name="LSPECTRALGW"> F  </i>
   <i type="logical" name="LSINGLES"> F  </i>
   <i type="logical" name="LFERMIGW"> F  </i>
   <i type="logical" name="ODDONLYGW"> F  </i>
   <i type="logical" name="EVENONLYGW"> F  </i>
   <i type="int" name="NKREDLFX">     1</i>
   <i type="int" name="NKREDLFY">     1</i>
   <i type="int" name="NKREDLFZ">     1</i>
   <i type="int" name="MAXMEM">  2800</i>
   <i type="int" name="TELESCOPE">     0</i>
   <i type="int" name="TAUPAR">     1</i>
   <i type="int" name="OMEGAPAR">    -1</i>
   <i name="LAMBDA">      1.00000000</i>
  </separator>
  <separator name="External order field" >
   <i name="OFIELD_KAPPA">      0.00000000</i>
   <v name="OFIELD_K">      0.00000000      0.00000000      0.00000000</v>
   <i name="OFIELD_Q6_NEAR">      0.00000000</i>
   <i name="OFIELD_Q6_FAR">      0.00000000</i>
   <i name="OFIELD_A">      0.00000000</i>
  </separator>
 </parameters>
 <atominfo>
  <atoms>       8 </atoms>
  <types>       1 </types>
  <array name="atoms" >
   <dimension dim="1">ion</dimension>
   <field type="string">element</field>
   <field type="int">atomtype</field>
   <set>
    <rc><c>C </c><c>   1</c></rc>
    <rc><c>C </c><c>   1</c></rc>
    <rc><c>C </c><c>   1</c></rc>
    <rc><c>C </c><c>   1</c></rc>
    <rc><c>C </c><c>   1</c></rc>
    <rc><c>C </c><c>   1</c></rc>
    <rc><c>C </c><c>   1</c></rc>
    <rc><c>C </c><c>   1</c></rc>
   </set>
  </array>
  <array name="atomtypes" >
   <dimension dim="1">type</dimension>
   <field type="int">atomspertype</field>
   <field type="string">element</field>
   <field>mass</field>
   <field>valence</field>
   <field type="string">pseudopotential</field>
   <set>
    <rc><c>   8</c><c>C </c><c>     12.01100000</c><c>      4.00000000</c><c>  PAW_PBE C 08Apr2002                   </c></rc>
   </set>
  </array>
 </atominfo>
 <structure name="initialpos" >
  <crystal>
   <varray name="basis" >
    <v>       4.92941660       0.00000000       0.00000000 </v>
    <v>      -2.46470830       4.26900000       0.00000000 </v>
    <v>       0.00000000       0.00000000      20.00000000 </v>
   </varray>
   <i name="volume">    420.87358917 </i>
   <varray name="rec_basis" >
    <v>       0.20286376       0.11712345      -0.00000000 </v>
    <v>       0.00000000       0.23424690       0.00000000 </v>
    <v>       0.00000000      -0.00000000       0.05000000 </v>
   </varray>
  </crystal>
  <varray name="positions" >
   <v>       0.33333333       0.16666667       0.50000000 </v>
   <v>       0.83333333       0.16666667       0.50000000 </v>
   <v>       0.33333333       0.66666667       0.50000000 </v>
   <v>       0.83333333       0.66666667       0.50000000 </v>
   <v>       0.16666667       0.33333333       0.50000000 </v>
   <v>       0.66666667       0.33333333       0.50000000 </v>
   <v>       0.16666667       0.83333333       0.50000000 </v>
   <v>       0.66666667       0.83333333       0.50000000 </v>
  </varray>
 </structure>
 <calculation>
  <scstep>
   <time name="dav">    4.05    4.40</time>
   <time name="total">    4.44    4.80</time>
   <energy>
    <i name="alphaZ">     12.49161259 </i>
    <i name="ewald">   5185.64168854 </i>
    <i name="hartreedc">  -6035.77136571 </i>
    <i name="XCdc">    105.46735052 </i>
    <i name="pawpsdc">    868.17637104 </i>
    <i name="pawaedc">   -872.73161751 </i>
    <i name="eentropy">      0.00000000 </i>
    <i name="bandstr">   -258.42297418 </i>
    <i name="atom">   1177.01779097 </i>
    <i name="e_fr_energy">    181.86885625 </i>
    <i name="e_wo_entrp">    181.86885625 </i>
    <i name="e_0_energy">    181.86885625 </i>
   </energy>
  </scstep>
  <scstep>
   <time name="dav">    4.51    4.66</time>
   <time name="total">    4.51    4.66</time>
   <energy>
    <i name="e_fr_energy">    -58.45707707 </i>
    <i name="e_wo_entrp">    -58.45707707 </i>
    <i name="e_0_energy">    -58.45707707 </i>
   </energy>
  </scstep>
  <scstep>
   <time name="dav">    4.70    4.86</time>
   <time name="total">    4.70    4.86</time>
   <energy>
    <i name="e_fr_energy">    -78.59157150 </i>
    <i name="e_wo_entrp">    -78.59157150 </i>
    <i name="e_0_energy">    -78.59157150 </i>
   </energy>
  </scstep>
  <scstep>
   <time name="dav">    4.42    4.58</time>
   <time name="total">    4.43    4.58</time>
   <energy>
    <i name="e_fr_energy">    -78.92450490 </i>
    <i name="e_wo_entrp">    -78.92450490 </i>
    <i name="e_0_energy">    -78.92450490 </i>
   </energy>
  </scstep>
  <scstep>
   <time name="dav">    4.99    5.22</time>
   <time name="total">    5.21    5.45</time>
   <energy>
    <i name="e_fr_energy">    -78.93113322 </i>
    <i name="e_wo_entrp">    -78.93113322 </i>
    <i name="e_0_energy">    -78.93113322 </i>
   </energy>
  </scstep>
  <scstep>
   <time name="dav">    4.81    5.32</time>
   <time name="total">    5.20    5.73</time>
   <energy>
    <i name="e_fr_energy">    -75.29911953 </i>
    <i name="e_wo_entrp">    -75.29911953 </i>
    <i name="e_0_energy">    -75.29911953 </i>
   </energy>
  </scstep>
  <scstep>
   <time name="dav">    4.57    4.95</time>
   <time name="total">    4.97    5.36</time>
   <energy>
    <i name="e_fr_energy">    -73.88353641 </i>
    <i name="e_wo_entrp">    -73.88353641 </i>
    <i name="e_0_energy">    -73.88353641 </i>
   </energy>
  </scstep>
  <scstep>
   <time name="dav">    4.58    4.92</time>
   <time name="total">    4.99    5.38</time>
   <energy>
    <i name="e_fr_energy">    -73.85931219 </i>
    <i name="e_wo_entrp">    -73.85931219 </i>
    <i name="e_0_energy">    -73.85931219 </i>
   </energy>
  </scstep>
  <scstep>
   <time name="dav">    4.95    5.65</time>
   <time name="total">    5.35    6.07</time>
   <energy>
    <i name="e_fr_energy">    -73.85762946 </i>
    <i name="e_wo_entrp">    -73.85762946 </i>
    <i name="e_0_energy">    -73.85762946 </i>
   </energy>
  </scstep>
  <scstep>
   <time name="dav">    4.25    4.45</time>
   <time name="total">    4.64    4.84</time>
   <energy>
    <i name="e_fr_energy">    -73.84762125 </i>
    <i name="e_wo_entrp">    -73.84762125 </i>
    <i name="e_0_energy">    -73.84762125 </i>
   </energy>
  </scstep>
  <scstep>
   <time name="dav">    4.30    4.54</time>
   <time name="total">    4.68    4.91</time>
   <energy>
    <i name="e_fr_energy">    -73.84811964 </i>
    <i name="e_wo_entrp">    -73.84811964 </i>
    <i name="e_0_energy">    -73.84811964 </i>
   </energy>
  </scstep>
  <scstep>
   <time name="dav">    3.98    4.18</time>
   <time name="total">    4.35    4.56</time>
   <energy>
    <i name="e_fr_energy">    -73.85053306 </i>
    <i name="e_wo_entrp">    -73.85053306 </i>
    <i name="e_0_energy">    -73.85053306 </i>
   </energy>
  </scstep>
  <scstep>
   <time name="dav">    3.96    4.00</time>
   <time name="total">    4.32    4.36</time>
   <energy>
    <i name="e_fr_energy">    -73.85166599 </i>
    <i name="e_wo_entrp">    -73.85166599 </i>
    <i name="e_0_energy">    -73.85166599 </i>
   </energy>
  </scstep>
  <scstep>
   <time name="dav">    3.45    3.47</time>
   <time name="total">    3.80    3.82</time>
   <energy>
    <i name="e_fr_energy">    -73.85471485 </i>
    <i name="e_wo_entrp">    -73.85471485 </i>
    <i name="e_0_energy">    -73.85471485 </i>
   </energy>
  </scstep>
  <scstep>
   <time name="dav">    3.82    3.84</time>
   <time name="total">    4.18    4.21</time>
   <energy>
    <i name="e_fr_energy">    -73.85479516 </i>
    <i name="e_wo_entrp">    -73.85479516 </i>
    <i name="e_0_energy">    -73.85479516 </i>
   </energy>
  </scstep>
  <scstep>
   <time name="dav">    3.78    3.93</time>
   <time name="total">    4.15    4.30</time>
   <energy>
    <i name="e_fr_energy">    -73.85501504 </i>
    <i name="e_wo_entrp">    -73.85501504 </i>
    <i name="e_0_energy">    -73.85501504 </i>
   </energy>
  </scstep>
  <scstep>
   <time name="dav">    3.89    4.11</time>
   <time name="total">    4.31    4.57</time>
   <energy>
    <i name="e_fr_energy">    -73.85503868 </i>
    <i name="e_wo_entrp">    -73.85503868 </i>
    <i name="e_0_energy">    -73.85503868 </i>
   </energy>
  </scstep>
  <scstep>
   <time name="dav">    3.53    3.57</time>
   <time name="total">    3.95    4.01</time>
   <energy>
    <i name="e_fr_energy">    -73.85505216 </i>
    <i name="e_wo_entrp">    -73.85505216 </i>
    <i name="e_0_energy">    -73.85505216 </i>
   </energy>
  </scstep>
  <scstep>
   <time name="dav">    3.31    3.33</time>
   <time name="total">    3.69    3.72</time>
   <energy>
    <i name="e_fr_energy">    -73.85506392 </i>
    <i name="e_wo_entrp">    -73.85506392 </i>
    <i name="e_0_energy">    -73.85506392 </i>
   </energy>
  </scstep>
  <scstep>
   <time name="dav">    3.51    3.56</time>
   <time name="total">    3.87    3.93</time>
   <energy>
    <i name="e_fr_energy">    -73.85506535 </i>
    <i name="e_wo_entrp">    -73.85506535 </i>
    <i name="e_0_energy">    -73.85506535 </i>
   </energy>
  </scstep>
  <scstep>
   <time name="dav">    3.42    3.55</time>
   <time name="total">    3.80    3.93</time>
   <energy>
    <i name="e_fr_energy">    -73.85506669 </i>
    <i name="e_wo_entrp">    -73.85506669 </i>
    <i name="e_0_energy">    -73.85506669 </i>
   </energy>
  </scstep>
  <scstep>
   <time name="dav">    3.57    3.62</time>
   <time name="total">    3.84    3.90</time>
   <energy>
    <i name="alphaZ">     12.49161259 </i>
    <i name="ewald">   5185.64168854 </i>
    <i name="hartreedc">  -6173.32127594 </i>
    <i name="XCdc">    110.21023818 </i>
    <i name="pawpsdc">   3435.46439392 </i>
    <i name="pawaedc">  -3440.87499196 </i>
    <i name="eentropy">      0.00000000 </i>
    <i name="bandstr">   -380.48452312 </i>
    <i name="atom">   1177.01779097 </i>
    <i name="e_fr_energy">    -73.85506682 </i>
    <i name="e_wo_entrp">    -73.85506682 </i>
    <i name="e_0_energy">    -73.85506682 </i>
   </energy>
  </scstep>
  <structure>
   <crystal>
    <varray name="basis" >
     <v>       4.92941660       0.00000000       0.00000000 </v>
     <v>      -2.46470830       4.26900000       0.00000000 </v>
     <v>       0.00000000       0.00000000      20.00000000 </v>
    </varray>
    <i name="volume">    420.87358917 </i>
    <varray name="rec_basis" >
     <v>       0.20286376       0.11712345      -0.00000000 </v>
     <v>       0.00000000       0.23424690       0.00000000 </v>
     <v>       0.00000000      -0.00000000       0.05000000 </v>
    </varray>
   </crystal>
   <varray name="positions" >
    <v>       0.33333333       0.16666667       0.50000000 </v>
    <v>       0.83333333       0.16666667       0.50000000 </v>
    <v>       0.33333333       0.66666667       0.50000000 </v>
    <v>       0.83333333       0.66666667       0.50000000 </v>
    <v>       0.16666667       0.33333333       0.50000000 </v>
    <v>       0.66666667       0.33333333       0.50000000 </v>
    <v>       0.16666667       0.83333333       0.50000000 </v>
    <v>       0.66666667       0.83333333       0.50000000 </v>
   </varray>
  </structure>
  <varray name="forces" >
   <v>      -0.00000000      -0.00000000      -0.00000000 </v>
   <v>      -0.00000000      -0.00000000       0.00000000 </v>
   <v>       0.00000000      -0.00000000       0.00000000 </v>
   <v>      -0.00000000      -0.00000000       0.00000000 </v>
   <v>       0.00000000       0.00000000      -0.00000000 </v>
   <v>       0.00000000       0.00000000      -0.00000000 </v>
   <v>       0.00000000       0.00000000       0.00000000 </v>
   <v>       0.00000000       0.00000000       0.00000000 </v>
  </varray>
  <varray name="stress" >
   <v>      -0.59018349       0.00000000      -0.00000000 </v>
   <v>      -0.00000000      -0.59018349      -0.00000000 </v>
   <v>      -0.00000000       0.00000000      -4.29221727 </v>
  </varray>
  <energy>
   <i name="e_fr_energy">    -73.85506682 </i>
   <i name="e_wo_entrp">    -73.85506682 </i>
   <i name="e_0_energy">      0.00000000 </i>
  </energy>
  <time name="totalsc">  102.62  107.37</time>
  <eigenvalues>
   <array>
    <dimension dim="1">band</dimension>
    <dimension dim="2">kpoint</dimension>
    <dimension dim="3">spin</dimension>
    <field>eigene</field>
    <field>occ</field>
    <set>
     <set comment="spin 1">
      <set comment="kpoint 1">
       <r>  -22.2765    1.0000 </r>
       <r>  -17.0284    1.0000 </r>
       <r>  -17.0284    1.0000 </r>
       <r>  -17.0284    1.0000 </r>
       <r>  -15.9871    1.0000 </r>
       <r>  -15.9871    1.0000 </r>
       <r>  -15.9871    1.0000 </r>
       <r>  -10.3726    1.0000 </r>
       <r>   -9.1582    1.0000 </r>
       <r>   -9.1582    1.0000 </r>
       <r>   -9.1582    1.0000 </r>
       <r>   -5.7731    1.0000 </r>
       <r>   -5.7731    1.0000 </r>
       <r>   -5.1068    1.0000 </r>
       <r>   -5.1068    1.0000 </r>
       <r>   -5.1068    1.0000 </r>
       <r>   -1.0608    0.0000 </r>
       <r>   -1.0608    0.0000 </r>
       <r>   -1.0608    0.0000 </r>
       <r>    0.5174    0.0000 </r>
       <r>    1.3065    0.0000 </r>
       <r>    1.6308    0.0000 </r>
       <r>    2.5519    0.0000 </r>
       <r>    3.0166    0.0000 </r>
       <r>    4.6449    0.0000 </r>
       <r>    4.6449    0.0000 </r>
       <r>    4.6449    0.0000 </r>
       <r>    4.6869    0.0000 </r>
       <r>    5.3062    0.0000 </r>
       <r>    5.6115    0.0000 </r>
       <r>    5.6115    0.0000 </r>
       <r>    7.6389    0.0000 </r>
       <r>    8.3793    0.0000 </r>
       <r>    8.3793    0.0000 </r>
       <r>    8.3793    0.0000 </r>
       <r>    8.4354    0.0000 </r>
       <r>    8.5329    0.0000 </r>
       <r>    8.5329    0.0000 </r>
       <r>    8.5329    0.0000 </r>
       <r>    8.7237    0.0000 </r>
       <r>    9.2230    0.0000 </r>
       <r>    9.2230    0.0000 </r>
       <r>    9.2230    0.0000 </r>
       <r>    9.4216    0.0000 </r>
       <r>    9.4216    0.0000 </r>
       <r>    9.4216    0.0000 </r>
       <r>    9.7811    0.0000 </r>
       <r>    9.8513    0.0000 </r>
       <r>    9.8513    0.0000 </r>
       <r>    9.8513    0.0000 </r>
       <r>    9.8588    0.0000 </r>
       <r>    9.8588    0.0000 </r>
       <r>    9.8588    0.0000 </r>
       <r>   10.5400    0.0000 </r>
       <r>   10.5400    0.0000 </r>
       <r>   10.5400    0.0000 </r>
       <r>   10.7166    0.0000 </r>
       <r>   10.7166    0.0000 </r>
       <r>   10.7166    0.0000 </r>
       <r>   11.1149    0.0000 </r>
       <r>   11.1149    0.0000 </r>
       <r>   11.1153    0.0000 </r>
       <r>   11.1492    0.0000 </r>
       <r>   11.1493    0.0000 </r>
      </set>
      <set comment="kpoint 2">
       <r>  -21.9074    1.0000 </r>
       <r>  -19.0210    1.0000 </r>
       <r>  -17.6609    1.0000 </r>
       <r>  -17.6609    1.0000 </r>
       <r>  -14.7610    1.0000 </r>
       <r>  -14.7610    1.0000 </r>
       <r>  -13.4537    1.0000 </r>
       <r>  -10.1734    1.0000 </r>
       <r>  -10.1734    1.0000 </r>
       <r>   -9.9324    1.0000 </r>
       <r>   -8.7958    1.0000 </r>
       <r>   -7.1582    1.0000 </r>
       <r>   -6.6611    1.0000 </r>
       <r>   -6.4773    1.0000 </r>
       <r>   -5.3114    1.0000 </r>
       <r>   -5.3114    1.0000 </r>
       <r>   -0.5051    0.0000 </r>
       <r>   -0.5051    0.0000 </r>
       <r>    1.0191    0.0000 </r>
       <r>    1.0557    0.0000 </r>
       <r>    1.8146    0.0000 </r>
       <r>    2.1450    0.0000 </r>
       <r>    3.0613    0.0000 </r>
       <r>    3.5249    0.0000 </r>
       <r>    4.7778    0.0000 </r>
       <r>    5.0803    0.0000 </r>
       <r>    5.1909    0.0000 </r>
       <r>    5.6294    0.0000 </r>
       <r>    5.8640    0.0000 </r>
       <r>    5.8726    0.0000 </r>
       <r>    6.2256    0.0000 </r>
       <r>    6.2256    0.0000 </r>
       <r>    6.2608    0.0000 </r>
       <r>    6.9999    0.0000 </r>
       <r>    6.9999    0.0000 </r>
       <r>    7.1227    0.0000 </r>
       <r>    7.1277    0.0000 </r>
       <r>    7.4963    0.0000 </r>
       <r>    7.6028    0.0000 </r>
       <r>    7.7704    0.0000 </r>
       <r>    7.7704    0.0000 </r>
       <r>    8.1353    0.0000 </r>
       <r>    8.3145    0.0000 </r>
       <r>    8.3145    0.0000 </r>
       <r>    8.9436    0.0000 </r>
       <r>    9.0474    0.0000 </r>
       <r>    9.0474    0.0000 </r>
       <r>    9.1839    0.0000 </r>
       <r>    9.6192    0.0000 </r>
       <r>    9.6192    0.0000 </r>
       <r>    9.8475    0.0000 </r>
       <r>   10.5018    0.0000 </r>
       <r>   10.5706    0.0000 </r>
       <r>   10.5706    0.0000 </r>
       <r>   10.6542    0.0000 </r>
       <r>   10.6542    0.0000 </r>
       <r>   11.5912    0.0000 </r>
       <r>   11.5912    0.0000 </r>
       <r>   11.8223    0.0000 </r>
       <r>   11.8223    0.0000 </r>
       <r>   11.8568    0.0000 </r>
       <r>   11.8942    0.0000 </r>
       <r>   12.3980    0.0000 </r>
       <r>   12.3983    0.0000 </r>
      </set>
      <set comment="kpoint 3">
       <r>  -20.8096    1.0000 </r>
       <r>  -20.8096    1.0000 </r>
       <r>  -17.9882    1.0000 </r>
       <r>  -17.9882    1.0000 </r>
       <r>  -13.2774    1.0000 </r>
       <r>  -13.2774    1.0000 </r>
       <r>  -11.7011    1.0000 </r>
       <r>  -11.7011    1.0000 </r>
       <r>  -10.1722    1.0000 </r>
       <r>  -10.1722    1.0000 </r>
       <r>   -8.6429    1.0000 </r>
       <r>   -8.6429    1.0000 </r>
       <r>   -7.7884    1.0000 </r>
       <r>   -7.7884    1.0000 </r>
       <r>   -5.4855    1.0000 </r>
       <r>   -5.4855    1.0000 </r>
       <r>    0.0800    0.0000 </r>
       <r>    0.0800    0.0000 </r>
       <r>    2.5218    0.0000 </r>
       <r>    2.5218    0.0000 </r>
       <r>    3.3206    0.0000 </r>
       <r>    3.3206    0.0000 </r>
       <r>    3.6874    0.0000 </r>
       <r>    3.6874    0.0000 </r>
       <r>    4.4509    0.0000 </r>
       <r>    4.4509    0.0000 </r>
       <r>    4.6791    0.0000 </r>
       <r>    4.6791    0.0000 </r>
       <r>    5.0255    0.0000 </r>
       <r>    5.0255    0.0000 </r>
       <r>    5.3465    0.0000 </r>
       <r>    5.3465    0.0000 </r>
       <r>    6.4887    0.0000 </r>
       <r>    6.4887    0.0000 </r>
       <r>    6.7061    0.0000 </r>
       <r>    6.7061    0.0000 </r>
       <r>    7.1584    0.0000 </r>
       <r>    7.1584    0.0000 </r>
       <r>    7.3394    0.0000 </r>
       <r>    7.3394    0.0000 </r>
       <r>    7.7989    0.0000 </r>
       <r>    7.7989    0.0000 </r>
       <r>    8.4542    0.0000 </r>
       <r>    8.4542    0.0000 </r>
       <r>    9.0818    0.0000 </r>
       <r>    9.0818    0.0000 </r>
       <r>    9.5455    0.0000 </r>
       <r>    9.5455    0.0000 </r>
       <r>    9.6046    0.0000 </r>
       <r>    9.6046    0.0000 </r>
       <r>    9.8792    0.0000 </r>
       <r>    9.8792    0.0000 </r>
       <r>    9.9167    0.0000 </r>
       <r>    9.9167    0.0000 </r>
       <r>   10.4478    0.0000 </r>
       <r>   10.4478    0.0000 </r>
       <r>   10.7271    0.0000 </r>
       <r>   10.7271    0.0000 </r>
       <r>   11.3420    0.0000 </r>
       <r>   11.3420    0.0000 </r>
       <r>   11.4234    0.0000 </r>
       <r>   11.4234    0.0000 </r>
       <r>   12.4461    0.0000 </r>
       <r>   12.4461    0.0000 </r>
      </set>
      <set comment="kpoint 4">
       <r>  -21.1739    1.0000 </r>
       <r>  -19.7298    1.0000 </r>
       <r>  -19.7298    1.0000 </r>
       <r>  -16.0797    1.0000 </r>
       <r>  -15.2002    1.0000 </r>
       <r>  -12.4851    1.0000 </r>
       <r>  -11.7594    1.0000 </r>
       <r>  -11.7594    1.0000 </r>
       <r>   -9.4053    1.0000 </r>
       <r>   -9.4053    1.0000 </r>
       <r>   -9.0660    1.0000 </r>
       <r>   -8.9669    1.0000 </r>
       <r>   -7.8851    1.0000 </r>
       <r>   -7.4044    1.0000 </r>
       <r>   -7.4044    1.0000 </r>
       <r>   -3.7660    1.0000 </r>
       <r>   -1.7917    0.0000 </r>
       <r>    2.0227    0.0000 </r>
       <r>    2.4684    0.0000 </r>
       <r>    2.4684    0.0000 </r>
       <r>    2.8275    0.0000 </r>
       <r>    3.1737    0.0000 </r>
       <r>    4.0213    0.0000 </r>
       <r>    4.0213    0.0000 </r>
       <r>    4.0774    0.0000 </r>
       <r>    4.5427    0.0000 </r>
       <r>    4.8443    0.0000 </r>
       <r>    4.8443    0.0000 </r>
       <r>    5.2301    0.0000 </r>
       <r>    5.2301    0.0000 </r>
       <r>    5.4927    0.0000 </r>
       <r>    6.0999    0.0000 </r>
       <r>    6.0999    0.0000 </r>
       <r>    6.1933    0.0000 </r>
       <r>    6.4547    0.0000 </r>
       <r>    6.4883    0.0000 </r>
       <r>    6.4883    0.0000 </r>
       <r>    6.6714    0.0000 </r>
       <r>    6.6714    0.0000 </r>
       <r>    6.8750    0.0000 </r>
       <r>    8.1380    0.0000 </r>
       <r>    8.1634    0.0000 </r>
       <r>    8.1634    0.0000 </r>
       <r>    8.1799    0.0000 </r>
       <r>    8.8461    0.0000 </r>
       <r>    8.8461    0.0000 </r>
       <r>    9.1072    0.0000 </r>
       <r>    9.3944    0.0000 </r>
       <r>    9.5678    0.0000 </r>
       <r>    9.8993    0.0000 </r>
       <r>    9.9524    0.0000 </r>
       <r>   10.5689    0.0000 </r>
       <r>   10.5689    0.0000 </r>
       <r>   10.9087    0.0000 </r>
       <r>   10.9087    0.0000 </r>
       <r>   10.9479    0.0000 </r>
       <r>   11.3630    0.0000 </r>
       <r>   11.3855    0.0000 </r>
       <r>   11.4899    0.0000 </r>
       <r>   11.9483    0.0000 </r>
       <r>   11.9483    0.0000 </r>
       <r>   12.2506    0.0000 </r>
       <r>   12.3731    0.0000 </r>
       <r>   12.5623    0.0000 </r>
      </set>
     </set>
    </set>
   </array>
  </eigenvalues>
  <separator name="orbital magnetization" >
   <v name="MAGDIPOLOUT">      0.00000000      0.00000000      0.00000000</v>
  </separator>
  <dos>
   <i name="efermi">     -3.76125375 </i>
   <total>
    <array>
     <dimension dim="1">gridpoints</dimension>
     <dimension dim="2">spin</dimension>
     <field>energy</field>
     <field>total</field>
     <field>integrated</field>
     <set>
      <set comment="spin 1">
       <r>   -15.0000     2.5840     8.8556 </r>
       <r>   -14.9933     2.6278     8.8730 </r>
       <r>   -14.9867     2.6717     8.8907 </r>
       <r>   -14.9800     2.7155     8.9087 </r>
       <r>   -14.9733     2.7594     8.9269 </r>
       <r>   -14.9667     2.8032     8.9455 </r>
       <r>   -14.9600     2.8471     8.9643 </r>
       <r>   -14.9533     2.8910     8.9834 </r>
       <r>   -14.9466     2.9348     9.0029 </r>
       <r>   -14.9400     2.9787     9.0226 </r>
       <r>   -14.9333     3.0225     9.0426 </r>
       <r>   -14.9266     3.0664     9.0629 </r>
       <r>   -14.9200     3.1102     9.0835 </r>
       <r>   -14.9133     3.1541     9.1044 </r>
       <r>   -14.9066     3.1979     9.1256 </r>
       <r>   -14.9000     3.2418     9.1470 </r>
       <r>   -14.8933     3.2857     9.1688 </r>
       <r>   -14.8866     3.3295     9.1909 </r>
       <r>   -14.8800     3.3734     9.2132 </r>
       <r>   -14.8733     3.4172     9.2358 </r>
       <r>   -14.8666     3.4611     9.2588 </r>
       <r>   -14.8600     3.5049     9.2820 </r>
       <r>   -14.8533     3.5488     9.3055 </r>
       <r>   -14.8466     3.5927     9.3293 </r>
       <r>   -14.8399     3.6365     9.3534 </r>
       <r>   -14.8333     3.6804     9.3778 </r>
       <r>   -14.8266     3.7242     9.4025 </r>
       <r>   -14.8199     3.7681     9.4275 </r>
       <r>   -14.8133     3.8119     9.4528 </r>
       <r>   -14.8066     3.8558     9.4784 </r>
       <r>   -14.7999     3.8996     9.5042 </r>
       <r>   -14.7933     3.9435     9.5304 </r>
       <r>   -14.7866     3.9874     9.5568 </r>
       <r>   -14.7799     4.0312     9.5836 </r>
       <r>   -14.7733     4.0751     9.6106 </r>
       <r>   -14.7666     4.1189     9.6379 </r>
       <r>   -14.7599     1.5535     9.6626 </r>
       <r>   -14.7533     1.5515     9.6730 </r>
       <r>   -14.7466     1.5494     9.6833 </r>
       <r>   -14.7399     1.5473     9.6936 </r>
       <r>   -14.7332     1.5452     9.7039 </r>
       <r>   -14.7266     1.5431     9.7142 </r>
       <r>   -14.7199     1.5410     9.7245 </r>
       <r>   -14.7132     1.5390     9.7348 </r>
       <r>   -14.7066     1.5369     9.7451 </r>
       <r>   -14.6999     1.5348     9.7553 </r>
       <r>   -14.6932     1.5327     9.7655 </r>
       <r>   -14.6866     1.5306     9.7757 </r>
       <r>   -14.6799     1.5285     9.7859 </r>
       <r>   -14.6732     1.5265     9.7961 </r>
       <r>   -14.6666     1.5244     9.8063 </r>
       <r>   -14.6599     1.5223     9.8165 </r>
       <r>   -14.6532     1.5202     9.8266 </r>
       <r>   -14.6465     1.5181     9.8367 </r>
       <r>   -14.6399     1.5160     9.8469 </r>
       <r>   -14.6332     1.5140     9.8570 </r>
       <r>   -14.6265     1.5119     9.8670 </r>
       <r>   -14.6199     1.5098     9.8771 </r>
       <r>   -14.6132     1.5077     9.8872 </r>
       <r>   -14.6065     1.5056     9.8972 </r>
       <r>   -14.5999     1.5035     9.9073 </r>
       <r>   -14.5932     1.5015     9.9173 </r>
       <r>   -14.5865     1.4994     9.9273 </r>
       <r>   -14.5799     1.4973     9.9373 </r>
       <r>   -14.5732     1.4952     9.9473 </r>
       <r>   -14.5665     1.4931     9.9572 </r>
       <r>   -14.5599     1.4910     9.9672 </r>
       <r>   -14.5532     1.4890     9.9771 </r>
       <r>   -14.5465     1.4869     9.9870 </r>
       <r>   -14.5398     1.4848     9.9969 </r>
       <r>   -14.5332     1.4827    10.0068 </r>
       <r>   -14.5265     1.4806    10.0167 </r>
       <r>   -14.5198     1.4785    10.0266 </r>
       <r>   -14.5132     1.4765    10.0364 </r>
       <r>   -14.5065     1.4744    10.0463 </r>
       <r>   -14.4998     1.4723    10.0561 </r>
       <r>   -14.4932     1.4702    10.0659 </r>
       <r>   -14.4865     1.4681    10.0757 </r>
       <r>   -14.4798     1.4660    10.0855 </r>
       <r>   -14.4732     1.4640    10.0953 </r>
       <r>   -14.4665     1.4619    10.1050 </r>
       <r>   -14.4598     1.4598    10.1148 </r>
       <r>   -14.4532     1.4577    10.1245 </r>
       <r>   -14.4465     1.4556    10.1342 </r>
       <r>   -14.4398     1.4535    10.1439 </r>
       <r>   -14.4331     1.4515    10.1536 </r>
       <r>   -14.4265     1.4494    10.1633 </r>
       <r>   -14.4198     1.4473    10.1729 </r>
       <r>   -14.4131     1.4452    10.1826 </r>
       <r>   -14.4065     1.4431    10.1922 </r>
       <r>   -14.3998     1.4410    10.2018 </r>
       <r>   -14.3931     1.4390    10.2114 </r>
       <r>   -14.3865     1.4369    10.2210 </r>
       <r>   -14.3798     1.4348    10.2306 </r>
       <r>   -14.3731     1.4327    10.2402 </r>
       <r>   -14.3665     1.4306    10.2497 </r>
       <r>   -14.3598     1.4285    10.2592 </r>
       <r>   -14.3531     1.4265    10.2688 </r>
       <r>   -14.3464     1.4244    10.2783 </r>
       <r>   -14.3398     1.4223    10.2877 </r>
       <r>   -14.3331     1.4202    10.2972 </r>
       <r>   -14.3264     1.4181    10.3067 </r>
       <r>   -14.3198     1.4160    10.3161 </r>
       <r>   -14.3131     1.4140    10.3256 </r>
       <r>   -14.3064     1.4119    10.3350 </r>
       <r>   -14.2998     1.4098    10.3444 </r>
       <r>   -14.2931     1.4077    10.3538 </r>
       <r>   -14.2864     1.4056    10.3632 </r>
       <r>   -14.2798     1.4035    10.3726 </r>
       <r>   -14.2731     1.4015    10.3819 </r>
       <r>   -14.2664     1.3994    10.3912 </r>
       <r>   -14.2598     1.3973    10.4006 </r>
       <r>   -14.2531     1.3952    10.4099 </r>
       <r>   -14.2464     1.3931    10.4192 </r>
       <r>   -14.2397     1.3910    10.4285 </r>
       <r>   -14.2331     1.3890    10.4377 </r>
       <r>   -14.2264     1.3869    10.4470 </r>
       <r>   -14.2197     1.3848    10.4562 </r>
       <r>   -14.2131     1.3827    10.4655 </r>
       <r>   -14.2064     1.3806    10.4747 </r>
       <r>   -14.1997     1.3785    10.4839 </r>
       <r>   -14.1931     1.3765    10.4931 </r>
       <r>   -14.1864     1.3744    10.5022 </r>
       <r>   -14.1797     1.3723    10.5114 </r>
       <r>   -14.1731     1.3702    10.5205 </r>
       <r>   -14.1664     1.3681    10.5297 </r>
       <r>   -14.1597     1.3660    10.5388 </r>
       <r>   -14.1531     1.3640    10.5479 </r>
       <r>   -14.1464     1.3619    10.5570 </r>
       <r>   -14.1397     1.3598    10.5661 </r>
       <r>   -14.1330     1.3577    10.5751 </r>
       <r>   -14.1264     1.3556    10.5842 </r>
       <r>   -14.1197     1.3535    10.5932 </r>
       <r>   -14.1130     1.3515    10.6022 </r>
       <r>   -14.1064     1.3494    10.6112 </r>
       <r>   -14.0997     1.3473    10.6202 </r>
       <r>   -14.0930     1.3452    10.6292 </r>
       <r>   -14.0864     1.3431    10.6382 </r>
       <r>   -14.0797     1.3410    10.6471 </r>
       <r>   -14.0730     1.3390    10.6560 </r>
       <r>   -14.0664     1.3369    10.6650 </r>
       <r>   -14.0597     1.3348    10.6739 </r>
       <r>   -14.0530     1.3327    10.6828 </r>
       <r>   -14.0463     1.3306    10.6916 </r>
       <r>   -14.0397     1.3285    10.7005 </r>
       <r>   -14.0330     1.3265    10.7094 </r>
       <r>   -14.0263     1.3244    10.7182 </r>
       <r>   -14.0197     1.3223    10.7270 </r>
       <r>   -14.0130     1.3202    10.7358 </r>
       <r>   -14.0063     1.3181    10.7446 </r>
       <r>   -13.9997     1.3160    10.7534 </r>
       <r>   -13.9930     1.3140    10.7622 </r>
       <r>   -13.9863     1.3119    10.7709 </r>
       <r>   -13.9797     1.3098    10.7797 </r>
       <r>   -13.9730     1.3077    10.7884 </r>
       <r>   -13.9663     1.3056    10.7971 </r>
       <r>   -13.9597     1.3035    10.8058 </r>
       <r>   -13.9530     1.3015    10.8145 </r>
       <r>   -13.9463     1.2994    10.8232 </r>
       <r>   -13.9396     1.2973    10.8318 </r>
       <r>   -13.9330     1.2952    10.8405 </r>
       <r>   -13.9263     1.2931    10.8491 </r>
       <r>   -13.9196     1.2910    10.8577 </r>
       <r>   -13.9130     1.2890    10.8663 </r>
       <r>   -13.9063     1.2869    10.8749 </r>
       <r>   -13.8996     1.2848    10.8835 </r>
       <r>   -13.8930     1.2827    10.8921 </r>
       <r>   -13.8863     1.2806    10.9006 </r>
       <r>   -13.8796     1.2785    10.9091 </r>
       <r>   -13.8730     1.2765    10.9177 </r>
       <r>   -13.8663     1.2744    10.9262 </r>
       <r>   -13.8596     1.2723    10.9347 </r>
       <r>   -13.8530     1.2702    10.9431 </r>
       <r>   -13.8463     1.2681    10.9516 </r>
       <r>   -13.8396     1.2660    10.9601 </r>
       <r>   -13.8329     1.2640    10.9685 </r>
       <r>   -13.8263     1.2619    10.9769 </r>
       <r>   -13.8196     1.2598    10.9853 </r>
       <r>   -13.8129     1.2577    10.9937 </r>
       <r>   -13.8063     1.2556    11.0021 </r>
       <r>   -13.7996     1.2535    11.0105 </r>
       <r>   -13.7929     1.2515    11.0188 </r>
       <r>   -13.7863     1.2494    11.0272 </r>
       <r>   -13.7796     1.2473    11.0355 </r>
       <r>   -13.7729     1.2452    11.0438 </r>
       <r>   -13.7663     1.2431    11.0521 </r>
       <r>   -13.7596     1.2410    11.0604 </r>
       <r>   -13.7529     1.2390    11.0686 </r>
       <r>   -13.7462     1.2369    11.0769 </r>
       <r>   -13.7396     1.2348    11.0851 </r>
       <r>   -13.7329     1.2327    11.0934 </r>
       <r>   -13.7262     1.2306    11.1016 </r>
       <r>   -13.7196     1.2286    11.1098 </r>
       <r>   -13.7129     1.2265    11.1180 </r>
       <r>   -13.7062     1.2244    11.1261 </r>
       <r>   -13.6996     1.2223    11.1343 </r>
       <r>   -13.6929     1.2202    11.1424 </r>
       <r>   -13.6862     1.2181    11.1506 </r>
       <r>   -13.6796     1.2161    11.1587 </r>
       <r>   -13.6729     1.2140    11.1668 </r>
       <r>   -13.6662     1.2119    11.1749 </r>
       <r>   -13.6596     1.2098    11.1830 </r>
       <r>   -13.6529     1.2077    11.1910 </r>
       <r>   -13.6462     1.2056    11.1991 </r>
       <r>   -13.6395     1.2036    11.2071 </r>
       <r>   -13.6329     1.2015    11.2151 </r>
       <r>   -13.6262     1.1994    11.2231 </r>
       <r>   -13.6195     1.1973    11.2311 </r>
       <r>   -13.6129     1.1952    11.2391 </r>
       <r>   -13.6062     1.1931    11.2471 </r>
       <r>   -13.5995     1.1911    11.2550 </r>
       <r>   -13.5929     1.1890    11.2629 </r>
       <r>   -13.5862     1.1869    11.2709 </r>
       <r>   -13.5795     1.1848    11.2788 </r>
       <r>   -13.5729     1.1827    11.2867 </r>
       <r>   -13.5662     1.1806    11.2946 </r>
       <r>   -13.5595     1.1786    11.3024 </r>
       <r>   -13.5529     1.1765    11.3103 </r>
       <r>   -13.5462     1.1744    11.3181 </r>
       <r>   -13.5395     1.1723    11.3259 </r>
       <r>   -13.5328     1.1702    11.3337 </r>
       <r>   -13.5262     1.1681    11.3415 </r>
       <r>   -13.5195     1.1661    11.3493 </r>
       <r>   -13.5128     1.1640    11.3571 </r>
       <r>   -13.5062     1.1619    11.3648 </r>
       <r>   -13.4995     1.1598    11.3726 </r>
       <r>   -13.4928     1.1577    11.3803 </r>
       <r>   -13.4862     1.1556    11.3880 </r>
       <r>   -13.4795     1.1536    11.3957 </r>
       <r>   -13.4728     1.1515    11.4034 </r>
       <r>   -13.4662     1.1494    11.4111 </r>
       <r>   -13.4595     1.1473    11.4187 </r>
       <r>   -13.4528     1.2919    11.4265 </r>
       <r>   -13.4461     1.2907    11.4351 </r>
       <r>   -13.4395     1.2895    11.4437 </r>
       <r>   -13.4328     1.2882    11.4523 </r>
       <r>   -13.4261     1.2870    11.4609 </r>
       <r>   -13.4195     1.2858    11.4695 </r>
       <r>   -13.4128     1.2845    11.4781 </r>
       <r>   -13.4061     1.2833    11.4866 </r>
       <r>   -13.3995     1.2821    11.4952 </r>
       <r>   -13.3928     1.2808    11.5037 </r>
       <r>   -13.3861     1.2796    11.5123 </r>
       <r>   -13.3795     1.2783    11.5208 </r>
       <r>   -13.3728     1.2771    11.5293 </r>
       <r>   -13.3661     1.2759    11.5378 </r>
       <r>   -13.3595     1.2746    11.5463 </r>
       <r>   -13.3528     1.2734    11.5548 </r>
       <r>   -13.3461     1.2722    11.5633 </r>
       <r>   -13.3394     1.2709    11.5718 </r>
       <r>   -13.3328     1.2697    11.5803 </r>
       <r>   -13.3261     1.2685    11.5887 </r>
       <r>   -13.3194     1.2672    11.5972 </r>
       <r>   -13.3128     1.2660    11.6056 </r>
       <r>   -13.3061     1.2648    11.6141 </r>
       <r>   -13.2994     1.2635    11.6225 </r>
       <r>   -13.2928     1.2623    11.6309 </r>
       <r>   -13.2861     1.2610    11.6393 </r>
       <r>   -13.2794     1.2598    11.6477 </r>
       <r>   -13.2728     1.2616    11.6561 </r>
       <r>   -13.2661     1.2647    11.6646 </r>
       <r>   -13.2594     1.2678    11.6730 </r>
       <r>   -13.2528     1.2708    11.6815 </r>
       <r>   -13.2461     1.2739    11.6900 </r>
       <r>   -13.2394     1.2770    11.6985 </r>
       <r>   -13.2327     1.2801    11.7070 </r>
       <r>   -13.2261     1.2832    11.7155 </r>
       <r>   -13.2194     1.2862    11.7241 </r>
       <r>   -13.2127     1.2893    11.7327 </r>
       <r>   -13.2061     1.2924    11.7413 </r>
       <r>   -13.1994     1.2955    11.7499 </r>
       <r>   -13.1927     1.2986    11.7586 </r>
       <r>   -13.1861     1.3017    11.7673 </r>
       <r>   -13.1794     1.3047    11.7760 </r>
       <r>   -13.1727     1.3078    11.7847 </r>
       <r>   -13.1661     1.3109    11.7934 </r>
       <r>   -13.1594     1.3140    11.8021 </r>
       <r>   -13.1527     1.3171    11.8109 </r>
       <r>   -13.1460     1.3201    11.8197 </r>
       <r>   -13.1394     1.3232    11.8285 </r>
       <r>   -13.1327     1.3263    11.8374 </r>
       <r>   -13.1260     1.3294    11.8462 </r>
       <r>   -13.1194     1.3325    11.8551 </r>
       <r>   -13.1127     1.3355    11.8640 </r>
       <r>   -13.1060     1.3386    11.8729 </r>
       <r>   -13.0994     1.3417    11.8818 </r>
       <r>   -13.0927     1.3448    11.8908 </r>
       <r>   -13.0860     1.3479    11.8998 </r>
       <r>   -13.0794     1.3509    11.9088 </r>
       <r>   -13.0727     1.3540    11.9178 </r>
       <r>   -13.0660     1.3571    11.9268 </r>
       <r>   -13.0594     1.3602    11.9359 </r>
       <r>   -13.0527     1.3633    11.9450 </r>
       <r>   -13.0460     1.3663    11.9541 </r>
       <r>   -13.0393     1.3694    11.9632 </r>
       <r>   -13.0327     1.3725    11.9723 </r>
       <r>   -13.0260     1.3756    11.9815 </r>
       <r>   -13.0193     1.3787    11.9907 </r>
       <r>   -13.0127     1.3818    11.9999 </r>
       <r>   -13.0060     1.3848    12.0091 </r>
       <r>   -12.9993     1.3879    12.0184 </r>
       <r>   -12.9927     1.3910    12.0276 </r>
       <r>   -12.9860     1.3941    12.0369 </r>
       <r>   -12.9793     1.3972    12.0462 </r>
       <r>   -12.9727     1.4002    12.0556 </r>
       <r>   -12.9660     1.4033    12.0649 </r>
       <r>   -12.9593     1.4064    12.0743 </r>
       <r>   -12.9527     1.4095    12.0837 </r>
       <r>   -12.9460     1.4126    12.0931 </r>
       <r>   -12.9393     1.4156    12.1025 </r>
       <r>   -12.9326     1.4187    12.1120 </r>
       <r>   -12.9260     1.4218    12.1214 </r>
       <r>   -12.9193     1.4249    12.1309 </r>
       <r>   -12.9126     1.4280    12.1404 </r>
       <r>   -12.9060     1.4310    12.1500 </r>
       <r>   -12.8993     1.4341    12.1595 </r>
       <r>   -12.8926     1.4372    12.1691 </r>
       <r>   -12.8860     1.4403    12.1787 </r>
       <r>   -12.8793     1.4434    12.1883 </r>
       <r>   -12.8726     1.4465    12.1979 </r>
       <r>   -12.8660     1.4495    12.2076 </r>
       <r>   -12.8593     1.4526    12.2173 </r>
       <r>   -12.8526     1.4557    12.2270 </r>
       <r>   -12.8459     1.4588    12.2367 </r>
       <r>   -12.8393     1.4619    12.2464 </r>
       <r>   -12.8326     1.4649    12.2562 </r>
       <r>   -12.8259     1.4680    12.2660 </r>
       <r>   -12.8193     1.4711    12.2758 </r>
       <r>   -12.8126     1.4742    12.2856 </r>
       <r>   -12.8059     1.4773    12.2954 </r>
       <r>   -12.7993     1.4803    12.3053 </r>
       <r>   -12.7926     1.4834    12.3152 </r>
       <r>   -12.7859     1.4865    12.3251 </r>
       <r>   -12.7793     1.4896    12.3350 </r>
       <r>   -12.7726     1.4927    12.3449 </r>
       <r>   -12.7659     1.4957    12.3549 </r>
       <r>   -12.7593     1.4988    12.3649 </r>
       <r>   -12.7526     1.5019    12.3749 </r>
       <r>   -12.7459     1.5050    12.3849 </r>
       <r>   -12.7392     1.5081    12.3950 </r>
       <r>   -12.7326     1.5112    12.4050 </r>
       <r>   -12.7259     1.5142    12.4151 </r>
       <r>   -12.7192     1.5173    12.4252 </r>
       <r>   -12.7126     1.5204    12.4354 </r>
       <r>   -12.7059     1.5235    12.4455 </r>
       <r>   -12.6992     1.5266    12.4557 </r>
       <r>   -12.6926     1.5296    12.4659 </r>
       <r>   -12.6859     1.5327    12.4761 </r>
       <r>   -12.6792     1.5358    12.4863 </r>
       <r>   -12.6726     1.5389    12.4966 </r>
       <r>   -12.6659     1.5420    12.5068 </r>
       <r>   -12.6592     1.5450    12.5171 </r>
       <r>   -12.6526     1.5481    12.5275 </r>
       <r>   -12.6459     1.5512    12.5378 </r>
       <r>   -12.6392     1.5543    12.5481 </r>
       <r>   -12.6325     1.5574    12.5585 </r>
       <r>   -12.6259     1.5604    12.5689 </r>
       <r>   -12.6192     1.5635    12.5793 </r>
       <r>   -12.6125     1.5666    12.5898 </r>
       <r>   -12.6059     1.5697    12.6002 </r>
       <r>   -12.5992     1.5728    12.6107 </r>
       <r>   -12.5925     1.5758    12.6212 </r>
       <r>   -12.5859     1.5789    12.6317 </r>
       <r>   -12.5792     1.5820    12.6423 </r>
       <r>   -12.5725     1.5851    12.6528 </r>
       <r>   -12.5659     1.5882    12.6634 </r>
       <r>   -12.5592     1.5913    12.6740 </r>
       <r>   -12.5525     1.5943    12.6846 </r>
       <r>   -12.5458     1.5974    12.6953 </r>
       <r>   -12.5392     1.6005    12.7059 </r>
       <r>   -12.5325     1.6036    12.7166 </r>
       <r>   -12.5258     1.6067    12.7273 </r>
       <r>   -12.5192     1.6097    12.7380 </r>
       <r>   -12.5125     1.6128    12.7488 </r>
       <r>   -12.5058     1.6159    12.7596 </r>
       <r>   -12.4992     1.6190    12.7703 </r>
       <r>   -12.4925     1.6221    12.7812 </r>
       <r>   -12.4858     1.6251    12.7920 </r>
       <r>   -12.4792     0.6803    12.9222 </r>
       <r>   -12.4725     0.6820    12.9267 </r>
       <r>   -12.4658     0.6836    12.9313 </r>
       <r>   -12.4592     0.6852    12.9359 </r>
       <r>   -12.4525     0.6869    12.9404 </r>
       <r>   -12.4458     0.6885    12.9450 </r>
       <r>   -12.4391     0.6901    12.9496 </r>
       <r>   -12.4325     0.6917    12.9542 </r>
       <r>   -12.4258     0.6934    12.9588 </r>
       <r>   -12.4191     0.6950    12.9635 </r>
       <r>   -12.4125     0.6966    12.9681 </r>
       <r>   -12.4058     0.6982    12.9728 </r>
       <r>   -12.3991     0.6999    12.9774 </r>
       <r>   -12.3925     0.7015    12.9821 </r>
       <r>   -12.3858     0.7031    12.9868 </r>
       <r>   -12.3791     0.7047    12.9915 </r>
       <r>   -12.3725     0.7064    12.9962 </r>
       <r>   -12.3658     0.7080    13.0009 </r>
       <r>   -12.3591     0.7096    13.0056 </r>
       <r>   -12.3525     0.7113    13.0104 </r>
       <r>   -12.3458     0.7129    13.0151 </r>
       <r>   -12.3391     0.7145    13.0199 </r>
       <r>   -12.3324     0.7161    13.0246 </r>
       <r>   -12.3258     0.7178    13.0294 </r>
       <r>   -12.3191     0.7194    13.0342 </r>
       <r>   -12.3124     0.7210    13.0390 </r>
       <r>   -12.3058     0.7226    13.0438 </r>
       <r>   -12.2991     0.7243    13.0486 </r>
       <r>   -12.2924     0.7259    13.0535 </r>
       <r>   -12.2858     0.7275    13.0583 </r>
       <r>   -12.2791     0.7291    13.0632 </r>
       <r>   -12.2724     0.7308    13.0681 </r>
       <r>   -12.2658     0.7324    13.0729 </r>
       <r>   -12.2591     0.7340    13.0778 </r>
       <r>   -12.2524     0.7356    13.0827 </r>
       <r>   -12.2457     0.7373    13.0876 </r>
       <r>   -12.2391     0.7389    13.0926 </r>
       <r>   -12.2324     0.7405    13.0975 </r>
       <r>   -12.2257     0.7422    13.1024 </r>
       <r>   -12.2191     0.7438    13.1074 </r>
       <r>   -12.2124     0.7454    13.1124 </r>
       <r>   -12.2057     0.7470    13.1173 </r>
       <r>   -12.1991     0.7487    13.1223 </r>
       <r>   -12.1924     0.7503    13.1273 </r>
       <r>   -12.1857     0.7519    13.1323 </r>
       <r>   -12.1791     0.7535    13.1373 </r>
       <r>   -12.1724     0.7552    13.1424 </r>
       <r>   -12.1657     0.7568    13.1474 </r>
       <r>   -12.1591     0.7584    13.1525 </r>
       <r>   -12.1524     0.7600    13.1575 </r>
       <r>   -12.1457     0.7617    13.1626 </r>
       <r>   -12.1390     0.7633    13.1677 </r>
       <r>   -12.1324     0.7649    13.1728 </r>
       <r>   -12.1257     0.7666    13.1779 </r>
       <r>   -12.1190     0.7682    13.1830 </r>
       <r>   -12.1124     0.7698    13.1881 </r>
       <r>   -12.1057     0.7714    13.1933 </r>
       <r>   -12.0990     0.7731    13.1984 </r>
       <r>   -12.0924     0.7747    13.2036 </r>
       <r>   -12.0857     0.7763    13.2088 </r>
       <r>   -12.0790     0.7779    13.2139 </r>
       <r>   -12.0724     0.7796    13.2191 </r>
       <r>   -12.0657     0.7812    13.2243 </r>
       <r>   -12.0590     0.7828    13.2296 </r>
       <r>   -12.0524     0.7844    13.2348 </r>
       <r>   -12.0457     0.7861    13.2400 </r>
       <r>   -12.0390     0.7877    13.2453 </r>
       <r>   -12.0323     0.7893    13.2505 </r>
       <r>   -12.0257     0.7910    13.2558 </r>
       <r>   -12.0190     0.7926    13.2611 </r>
       <r>   -12.0123     0.7942    13.2664 </r>
       <r>   -12.0057     0.7958    13.2717 </r>
       <r>   -11.9990     0.7975    13.2770 </r>
       <r>   -11.9923     0.7991    13.2823 </r>
       <r>   -11.9857     0.8007    13.2876 </r>
       <r>   -11.9790     0.8023    13.2930 </r>
       <r>   -11.9723     0.8040    13.2983 </r>
       <r>   -11.9657     0.8056    13.3037 </r>
       <r>   -11.9590     0.8072    13.3091 </r>
       <r>   -11.9523     0.8088    13.3145 </r>
       <r>   -11.9456     0.8105    13.3199 </r>
       <r>   -11.9390     0.8121    13.3253 </r>
       <r>   -11.9323     0.8137    13.3307 </r>
       <r>   -11.9256     0.8154    13.3361 </r>
       <r>   -11.9190     0.8170    13.3416 </r>
       <r>   -11.9123     0.8186    13.3470 </r>
       <r>   -11.9056     0.8202    13.3525 </r>
       <r>   -11.8990     0.8219    13.3580 </r>
       <r>   -11.8923     0.8235    13.3635 </r>
       <r>   -11.8856     0.8251    13.3690 </r>
       <r>   -11.8790     0.8267    13.3745 </r>
       <r>   -11.8723     0.8284    13.3800 </r>
       <r>   -11.8656     0.8300    13.3855 </r>
       <r>   -11.8590     0.8316    13.3911 </r>
       <r>   -11.8523     0.8332    13.3966 </r>
       <r>   -11.8456     0.8349    13.4022 </r>
       <r>   -11.8389     0.8365    13.4077 </r>
       <r>   -11.8323     0.8381    13.4133 </r>
       <r>   -11.8256     0.8397    13.4189 </r>
       <r>   -11.8189     0.8414    13.4245 </r>
       <r>   -11.8123     0.8430    13.4301 </r>
       <r>   -11.8056     0.8446    13.4358 </r>
       <r>   -11.7989     0.8463    13.4414 </r>
       <r>   -11.7923     0.8479    13.4471 </r>
       <r>   -11.7856     0.8495    13.4527 </r>
       <r>   -11.7789     0.8511    13.4584 </r>
       <r>   -11.7723     0.8528    13.4641 </r>
       <r>   -11.7656     0.8544    13.4698 </r>
       <r>   -11.7589    26.4285    13.7368 </r>
       <r>   -11.7523    23.4889    13.9032 </r>
       <r>   -11.7456    20.5493    14.0501 </r>
       <r>   -11.7389    17.6097    14.1773 </r>
       <r>   -11.7322    14.6701    14.2850 </r>
       <r>   -11.7256    11.7306    14.3730 </r>
       <r>   -11.7189     8.7910    14.4414 </r>
       <r>   -11.7122     5.8514    14.4902 </r>
       <r>   -11.7056     2.9118    14.5195 </r>
       <r>   -11.6989     0.9624    14.5302 </r>
       <r>   -11.6922     0.9603    14.5366 </r>
       <r>   -11.6856     0.9581    14.5430 </r>
       <r>   -11.6789     0.9560    14.5494 </r>
       <r>   -11.6722     0.9539    14.5558 </r>
       <r>   -11.6656     0.9517    14.5621 </r>
       <r>   -11.6589     0.9496    14.5685 </r>
       <r>   -11.6522     0.9474    14.5748 </r>
       <r>   -11.6455     0.9453    14.5811 </r>
       <r>   -11.6389     0.9432    14.5874 </r>
       <r>   -11.6322     0.9410    14.5937 </r>
       <r>   -11.6255     0.9389    14.5999 </r>
       <r>   -11.6189     0.9367    14.6062 </r>
       <r>   -11.6122     0.9346    14.6124 </r>
       <r>   -11.6055     0.9325    14.6187 </r>
       <r>   -11.5989     0.9303    14.6249 </r>
       <r>   -11.5922     0.9282    14.6311 </r>
       <r>   -11.5855     0.9260    14.6372 </r>
       <r>   -11.5789     0.9239    14.6434 </r>
       <r>   -11.5722     0.9218    14.6496 </r>
       <r>   -11.5655     0.9196    14.6557 </r>
       <r>   -11.5589     0.9175    14.6618 </r>
       <r>   -11.5522     0.9153    14.6679 </r>
       <r>   -11.5455     0.9132    14.6740 </r>
       <r>   -11.5388     0.9111    14.6801 </r>
       <r>   -11.5322     0.9089    14.6862 </r>
       <r>   -11.5255     0.9068    14.6922 </r>
       <r>   -11.5188     0.9046    14.6983 </r>
       <r>   -11.5122     0.9025    14.7043 </r>
       <r>   -11.5055     0.9004    14.7103 </r>
       <r>   -11.4988     0.8982    14.7163 </r>
       <r>   -11.4922     0.8961    14.7223 </r>
       <r>   -11.4855     0.8939    14.7283 </r>
       <r>   -11.4788     0.8918    14.7342 </r>
       <r>   -11.4722     0.8897    14.7402 </r>
       <r>   -11.4655     0.8875    14.7461 </r>
       <r>   -11.4588     0.8854    14.7520 </r>
       <r>   -11.4522     0.8832    14.7579 </r>
       <r>   -11.4455     0.8811    14.7638 </r>
       <r>   -11.4388     0.8790    14.7697 </r>
       <r>   -11.4321     0.8768    14.7755 </r>
       <r>   -11.4255     0.8747    14.7814 </r>
       <r>   -11.4188     0.8725    14.7872 </r>
       <r>   -11.4121     0.8704    14.7930 </r>
       <r>   -11.4055     0.8683    14.7988 </r>
       <r>   -11.3988     0.8661    14.8046 </r>
       <r>   -11.3921     0.8640    14.8103 </r>
       <r>   -11.3855     0.8618    14.8161 </r>
       <r>   -11.3788     0.8597    14.8218 </r>
       <r>   -11.3721     0.8576    14.8276 </r>
       <r>   -11.3655     0.8554    14.8333 </r>
       <r>   -11.3588     0.8533    14.8390 </r>
       <r>   -11.3521     0.8511    14.8447 </r>
       <r>   -11.3454     0.8490    14.8503 </r>
       <r>   -11.3388     0.8469    14.8560 </r>
       <r>   -11.3321     0.8447    14.8616 </r>
       <r>   -11.3254     0.8426    14.8672 </r>
       <r>   -11.3188     0.8404    14.8729 </r>
       <r>   -11.3121     0.8383    14.8785 </r>
       <r>   -11.3054     0.8362    14.8840 </r>
       <r>   -11.2988     0.8340    14.8896 </r>
       <r>   -11.2921     0.8319    14.8952 </r>
       <r>   -11.2854     0.8297    14.9007 </r>
       <r>   -11.2788     0.8276    14.9062 </r>
       <r>   -11.2721     0.8255    14.9117 </r>
       <r>   -11.2654     0.8233    14.9172 </r>
       <r>   -11.2588     0.8212    14.9227 </r>
       <r>   -11.2521     0.8190    14.9282 </r>
       <r>   -11.2454     0.8169    14.9336 </r>
       <r>   -11.2387     0.8148    14.9391 </r>
       <r>   -11.2321     0.8126    14.9445 </r>
       <r>   -11.2254     0.8105    14.9499 </r>
       <r>   -11.2187     0.8083    14.9553 </r>
       <r>   -11.2121     0.8062    14.9607 </r>
       <r>   -11.2054     0.8041    14.9661 </r>
       <r>   -11.1987     0.8019    14.9714 </r>
       <r>   -11.1921     0.7998    14.9768 </r>
       <r>   -11.1854     0.7976    14.9821 </r>
       <r>   -11.1787     0.7955    14.9874 </r>
       <r>   -11.1721     0.7934    14.9927 </r>
       <r>   -11.1654     0.7912    14.9980 </r>
       <r>   -11.1587     0.7891    15.0033 </r>
       <r>   -11.1521     0.7869    15.0085 </r>
       <r>   -11.1454     0.7848    15.0138 </r>
       <r>   -11.1387     0.7827    15.0190 </r>
       <r>   -11.1320     0.7805    15.0242 </r>
       <r>   -11.1254     0.7784    15.0294 </r>
       <r>   -11.1187     0.7762    15.0346 </r>
       <r>   -11.1120     0.7741    15.0397 </r>
       <r>   -11.1054     0.7720    15.0449 </r>
       <r>   -11.0987     0.7698    15.0500 </r>
       <r>   -11.0920     0.7677    15.0552 </r>
       <r>   -11.0854     0.7655    15.0603 </r>
       <r>   -11.0787     0.7634    15.0654 </r>
       <r>   -11.0720     0.7613    15.0705 </r>
       <r>   -11.0654     0.7591    15.0755 </r>
       <r>   -11.0587     0.7570    15.0806 </r>
       <r>   -11.0520     0.7548    15.0856 </r>
       <r>   -11.0453     0.7527    15.0907 </r>
       <r>   -11.0387     0.7506    15.0957 </r>
       <r>   -11.0320     0.7484    15.1007 </r>
       <r>   -11.0253     0.7463    15.1057 </r>
       <r>   -11.0187     0.7441    15.1106 </r>
       <r>   -11.0120     0.7420    15.1156 </r>
       <r>   -11.0053     0.7399    15.1205 </r>
       <r>   -10.9987     0.7377    15.1254 </r>
       <r>   -10.9920     0.7356    15.1304 </r>
       <r>   -10.9853     0.7334    15.1353 </r>
       <r>   -10.9787     0.7313    15.1401 </r>
       <r>   -10.9720     0.7292    15.1450 </r>
       <r>   -10.9653     0.7270    15.1499 </r>
       <r>   -10.9587     0.7249    15.1547 </r>
       <r>   -10.9520     0.7227    15.1595 </r>
       <r>   -10.9453     0.7206    15.1643 </r>
       <r>   -10.9386     0.7185    15.1691 </r>
       <r>   -10.9320     0.7163    15.1739 </r>
       <r>   -10.9253     0.7142    15.1787 </r>
       <r>   -10.9186     0.7120    15.1835 </r>
       <r>   -10.9120     0.7099    15.1882 </r>
       <r>   -10.9053     0.7078    15.1929 </r>
       <r>   -10.8986     0.7056    15.1976 </r>
       <r>   -10.8920     0.7035    15.2023 </r>
       <r>   -10.8853     0.7013    15.2070 </r>
       <r>   -10.8786     0.6992    15.2117 </r>
       <r>   -10.8720     0.6971    15.2163 </r>
       <r>   -10.8653     0.6949    15.2210 </r>
       <r>   -10.8586     0.6928    15.2256 </r>
       <r>   -10.8520     0.6906    15.2302 </r>
       <r>   -10.8453     0.6885    15.2348 </r>
       <r>   -10.8386     0.6864    15.2394 </r>
       <r>   -10.8319     0.6842    15.2440 </r>
       <r>   -10.8253     0.6821    15.2485 </r>
       <r>   -10.8186     0.6799    15.2531 </r>
       <r>   -10.8119     0.6778    15.2576 </r>
       <r>   -10.8053     0.6757    15.2621 </r>
       <r>   -10.7986     0.6735    15.2666 </r>
       <r>   -10.7919     0.6714    15.2711 </r>
       <r>   -10.7853     0.6692    15.2756 </r>
       <r>   -10.7786     0.6671    15.2800 </r>
       <r>   -10.7719     0.6650    15.2845 </r>
       <r>   -10.7653     0.6628    15.2889 </r>
       <r>   -10.7586     0.6607    15.2933 </r>
       <r>   -10.7519     0.6585    15.2977 </r>
       <r>   -10.7452     0.6564    15.3021 </r>
       <r>   -10.7386     0.6543    15.3065 </r>
       <r>   -10.7319     0.6521    15.3108 </r>
       <r>   -10.7252     0.6500    15.3152 </r>
       <r>   -10.7186     0.6478    15.3195 </r>
       <r>   -10.7119     0.6457    15.3238 </r>
       <r>   -10.7052     0.6436    15.3281 </r>
       <r>   -10.6986     0.6414    15.3324 </r>
       <r>   -10.6919     0.6393    15.3367 </r>
       <r>   -10.6852     0.6371    15.3409 </r>
       <r>   -10.6786     0.6350    15.3452 </r>
       <r>   -10.6719     0.6329    15.3494 </r>
       <r>   -10.6652     0.6307    15.3536 </r>
       <r>   -10.6586     0.6286    15.3578 </r>
       <r>   -10.6519     0.6264    15.3620 </r>
       <r>   -10.6452     0.6243    15.3661 </r>
       <r>   -10.6385     0.6222    15.3703 </r>
       <r>   -10.6319     0.6200    15.3744 </r>
       <r>   -10.6252     0.6179    15.3786 </r>
       <r>   -10.6185     0.6157    15.3827 </r>
       <r>   -10.6119     0.6136    15.3868 </r>
       <r>   -10.6052     0.6115    15.3909 </r>
       <r>   -10.5985     0.6093    15.3949 </r>
       <r>   -10.5919     0.6072    15.3990 </r>
       <r>   -10.5852     0.6050    15.4030 </r>
       <r>   -10.5785     0.6029    15.4071 </r>
       <r>   -10.5719     0.6008    15.4111 </r>
       <r>   -10.5652     0.5986    15.4151 </r>
       <r>   -10.5585     0.5965    15.4191 </r>
       <r>   -10.5519     0.5943    15.4230 </r>
       <r>   -10.5452     0.5922    15.4270 </r>
       <r>   -10.5385     0.5901    15.4309 </r>
       <r>   -10.5318     0.5879    15.4349 </r>
       <r>   -10.5252     0.5858    15.4388 </r>
       <r>   -10.5185     0.5836    15.4427 </r>
       <r>   -10.5118     0.5815    15.4466 </r>
       <r>   -10.5052     0.5794    15.4504 </r>
       <r>   -10.4985     0.5772    15.4543 </r>
       <r>   -10.4918     0.5751    15.4581 </r>
       <r>   -10.4852     0.5729    15.4620 </r>
       <r>   -10.4785     0.5708    15.4658 </r>
       <r>   -10.4718     0.5687    15.4696 </r>
       <r>   -10.4652     0.5665    15.4734 </r>
       <r>   -10.4585     0.5644    15.4771 </r>
       <r>   -10.4518     0.5622    15.4809 </r>
       <r>   -10.4451     0.5601    15.4846 </r>
       <r>   -10.4385     0.5580    15.4884 </r>
       <r>   -10.4318     0.5558    15.4921 </r>
       <r>   -10.4251     0.5537    15.4958 </r>
       <r>   -10.4185     0.5515    15.4995 </r>
       <r>   -10.4118     0.5494    15.5031 </r>
       <r>   -10.4051     0.5473    15.5068 </r>
       <r>   -10.3985     0.5451    15.5104 </r>
       <r>   -10.3918     0.5430    15.5141 </r>
       <r>   -10.3851     0.5408    15.5177 </r>
       <r>   -10.3785     0.5387    15.5213 </r>
       <r>   -10.3718     0.5522    15.5249 </r>
       <r>   -10.3651     0.6761    15.5290 </r>
       <r>   -10.3585     0.7999    15.5339 </r>
       <r>   -10.3518     0.9237    15.5396 </r>
       <r>   -10.3451     1.0476    15.5462 </r>
       <r>   -10.3384     1.1714    15.5536 </r>
       <r>   -10.3318     1.2953    15.5618 </r>
       <r>   -10.3251     1.4191    15.5709 </r>
       <r>   -10.3184     1.5430    15.5807 </r>
       <r>   -10.3118     1.6668    15.5915 </r>
       <r>   -10.3051     1.7907    15.6030 </r>
       <r>   -10.2984     1.9145    15.6153 </r>
       <r>   -10.2918     2.0384    15.6285 </r>
       <r>   -10.2851     2.1622    15.6425 </r>
       <r>   -10.2784     2.2861    15.6574 </r>
       <r>   -10.2718     2.4099    15.6730 </r>
       <r>   -10.2651     2.5338    15.6895 </r>
       <r>   -10.2584     2.6576    15.7068 </r>
       <r>   -10.2518     2.7815    15.7249 </r>
       <r>   -10.2451     2.9053    15.7439 </r>
       <r>   -10.2384     3.0292    15.7637 </r>
       <r>   -10.2317     3.1530    15.7843 </r>
       <r>   -10.2251     3.2769    15.8058 </r>
       <r>   -10.2184     3.4007    15.8280 </r>
       <r>   -10.2117     3.5246    15.8511 </r>
       <r>   -10.2051     3.6484    15.8750 </r>
       <r>   -10.1984     3.7722    15.8998 </r>
       <r>   -10.1917     3.8961    15.9253 </r>
       <r>   -10.1851     4.0199    15.9517 </r>
       <r>   -10.1784     4.1438    15.9790 </r>
       <r>   -10.1717     3.6686    16.0049 </r>
       <r>   -10.1651     3.7097    16.0295 </r>
       <r>   -10.1584     3.7508    16.0544 </r>
       <r>   -10.1517     3.7919    16.0795 </r>
       <r>   -10.1450     3.8330    16.1049 </r>
       <r>   -10.1384     3.8741    16.1306 </r>
       <r>   -10.1317     3.9152    16.1566 </r>
       <r>   -10.1250     3.9563    16.1829 </r>
       <r>   -10.1184     3.9974    16.2094 </r>
       <r>   -10.1117     4.0385    16.2362 </r>
       <r>   -10.1050     4.0796    16.2632 </r>
       <r>   -10.0984     4.1207    16.2906 </r>
       <r>   -10.0917     4.1618    16.3182 </r>
       <r>   -10.0850     4.2029    16.3461 </r>
       <r>   -10.0784     4.2440    16.3743 </r>
       <r>   -10.0717     4.2850    16.4027 </r>
       <r>   -10.0650     4.3261    16.4314 </r>
       <r>   -10.0584     4.3672    16.4604 </r>
       <r>   -10.0517     4.4083    16.4897 </r>
       <r>   -10.0450     4.4494    16.5192 </r>
       <r>   -10.0383     4.4905    16.5490 </r>
       <r>   -10.0317     4.5316    16.5791 </r>
       <r>   -10.0250     4.5727    16.6094 </r>
       <r>   -10.0183     4.6138    16.6401 </r>
       <r>   -10.0117     4.6549    16.6710 </r>
       <r>   -10.0050     4.6960    16.7022 </r>
       <r>    -9.9983     4.7371    16.7336 </r>
       <r>    -9.9917     4.7782    16.7653 </r>
       <r>    -9.9850     4.8193    16.7973 </r>
       <r>    -9.9783     4.8604    16.8296 </r>
       <r>    -9.9717     4.9015    16.8622 </r>
       <r>    -9.9650     4.9426    16.8950 </r>
       <r>    -9.9583     4.9836    16.9281 </r>
       <r>    -9.9517     5.0247    16.9615 </r>
       <r>    -9.9450     5.0658    16.9951 </r>
       <r>    -9.9383     5.1069    17.0290 </r>
       <r>    -9.9316     7.5277    17.0650 </r>
       <r>    -9.9250     7.4633    17.1150 </r>
       <r>    -9.9183     7.3989    17.1646 </r>
       <r>    -9.9116     7.3345    17.2137 </r>
       <r>    -9.9050     7.2701    17.2624 </r>
       <r>    -9.8983     7.2057    17.3107 </r>
       <r>    -9.8916     7.1413    17.3585 </r>
       <r>    -9.8850     7.0769    17.4059 </r>
       <r>    -9.8783     7.0125    17.4529 </r>
       <r>    -9.8716     6.9481    17.4994 </r>
       <r>    -9.8650     6.8837    17.5456 </r>
       <r>    -9.8583     6.8193    17.5913 </r>
       <r>    -9.8516     6.7549    17.6365 </r>
       <r>    -9.8449     6.6905    17.6814 </r>
       <r>    -9.8383     6.6261    17.7258 </r>
       <r>    -9.8316     6.5617    17.7697 </r>
       <r>    -9.8249     6.4973    17.8133 </r>
       <r>    -9.8183     6.4329    17.8564 </r>
       <r>    -9.8116     6.3685    17.8991 </r>
       <r>    -9.8049     6.3041    17.9413 </r>
       <r>    -9.7983     6.2397    17.9832 </r>
       <r>    -9.7916     6.1753    18.0246 </r>
       <r>    -9.7849     6.1109    18.0655 </r>
       <r>    -9.7783     6.0465    18.1061 </r>
       <r>    -9.7716     5.9821    18.1462 </r>
       <r>    -9.7649     5.9177    18.1859 </r>
       <r>    -9.7583     5.8533    18.2251 </r>
       <r>    -9.7516     5.7889    18.2639 </r>
       <r>    -9.7449     5.7245    18.3023 </r>
       <r>    -9.7382     5.6601    18.3403 </r>
       <r>    -9.7316     5.5957    18.3778 </r>
       <r>    -9.7249     5.5313    18.4149 </r>
       <r>    -9.7182     5.4669    18.4516 </r>
       <r>    -9.7116     5.4025    18.4878 </r>
       <r>    -9.7049     5.3381    18.5236 </r>
       <r>    -9.6982     5.2737    18.5590 </r>
       <r>    -9.6916     5.2093    18.5940 </r>
       <r>    -9.6849     5.1449    18.6285 </r>
       <r>    -9.6782     5.0805    18.6626 </r>
       <r>    -9.6716     5.0161    18.6963 </r>
       <r>    -9.6649     4.9517    18.7295 </r>
       <r>    -9.6582     4.8873    18.7623 </r>
       <r>    -9.6516     4.8229    18.7947 </r>
       <r>    -9.6449     4.7586    18.8266 </r>
       <r>    -9.6382     4.6942    18.8582 </r>
       <r>    -9.6315     4.6298    18.8893 </r>
       <r>    -9.6249     4.5654    18.9199 </r>
       <r>    -9.6182     4.5010    18.9501 </r>
       <r>    -9.6115     4.4366    18.9799 </r>
       <r>    -9.6049     4.3722    19.0093 </r>
       <r>    -9.5982     4.3078    19.0383 </r>
       <r>    -9.5915     4.2434    19.0668 </r>
       <r>    -9.5849     4.1790    19.0949 </r>
       <r>    -9.5782     4.1146    19.1225 </r>
       <r>    -9.5715     4.0502    19.1497 </r>
       <r>    -9.5649     3.9858    19.1765 </r>
       <r>    -9.5582     3.9214    19.2029 </r>
       <r>    -9.5515     3.8570    19.2288 </r>
       <r>    -9.5448     3.7926    19.2543 </r>
       <r>    -9.5382     3.7282    19.2794 </r>
       <r>    -9.5315     3.6638    19.3041 </r>
       <r>    -9.5248     3.5994    19.3283 </r>
       <r>    -9.5182     3.5350    19.3521 </r>
       <r>    -9.5115     3.4706    19.3754 </r>
       <r>    -9.5048     3.4062    19.3984 </r>
       <r>    -9.4982     3.3418    19.4209 </r>
       <r>    -9.4915     3.2774    19.4429 </r>
       <r>    -9.4848     3.2130    19.4646 </r>
       <r>    -9.4782     3.1486    19.4858 </r>
       <r>    -9.4715     3.0842    19.5066 </r>
       <r>    -9.4648     3.0198    19.5269 </r>
       <r>    -9.4582     2.9554    19.5469 </r>
       <r>    -9.4515     2.8910    19.5663 </r>
       <r>    -9.4448     2.8266    19.5854 </r>
       <r>    -9.4381     2.7622    19.6040 </r>
       <r>    -9.4315     2.6978    19.6223 </r>
       <r>    -9.4248     2.6334    19.6400 </r>
       <r>    -9.4181     2.5690    19.6574 </r>
       <r>    -9.4115     2.5046    19.6743 </r>
       <r>    -9.4048     0.4881    19.9398 </r>
       <r>    -9.3981     0.4749    19.9430 </r>
       <r>    -9.3915     0.4617    19.9461 </r>
       <r>    -9.3848     0.4485    19.9492 </r>
       <r>    -9.3781     0.4353    19.9521 </r>
       <r>    -9.3715     0.4221    19.9550 </r>
       <r>    -9.3648     0.4089    19.9578 </r>
       <r>    -9.3581     0.3957    19.9604 </r>
       <r>    -9.3515     0.3825    19.9630 </r>
       <r>    -9.3448     0.3693    19.9655 </r>
       <r>    -9.3381     0.3561    19.9680 </r>
       <r>    -9.3314     0.3429    19.9703 </r>
       <r>    -9.3248     0.3297    19.9725 </r>
       <r>    -9.3181     0.3165    19.9747 </r>
       <r>    -9.3114     0.3033    19.9768 </r>
       <r>    -9.3048     0.2901    19.9787 </r>
[...]
        <r>  0.0041  0.0021  0.0000  0.0021  0.0000  0.0000  0.0000  0.0000  0.0000 </r>
        <r>  0.0041  0.0021  0.0000  0.0021  0.0000  0.0000  0.0000  0.0000  0.0000 </r>
        <r>  0.0041  0.0021  0.0000  0.0021  0.0000  0.0000  0.0000  0.0000  0.0000 </r>
        <r>  0.0041  0.0021  0.0000  0.0021  0.0000  0.0000  0.0000  0.0000  0.0000 </r>
        <r>  0.0041  0.0021  0.0000  0.0021  0.0000  0.0000  0.0000  0.0000  0.0000 </r>
        <r>  0.0041  0.0021  0.0000  0.0021  0.0000  0.0000  0.0000  0.0000  0.0000 </r>
       </set>
       <set comment="band 41">
        <r>  0.0284  0.0115  0.0000  0.0344  0.0000  0.0000  0.0000  0.0000  0.0000 </r>
        <r>  0.0284  0.0115  0.0000  0.0344  0.0000  0.0000  0.0000  0.0000  0.0000 </r>
        <r>  0.0284  0.0115  0.0000  0.0344  0.0000  0.0000  0.0000  0.0000  0.0000 </r>
        <r>  0.0284  0.0115  0.0000  0.0344  0.0000  0.0000  0.0000  0.0000  0.0000 </r>
        <r>  0.0284  0.0115  0.0000  0.0344  0.0000  0.0000  0.0000  0.0000  0.0000 </r>
        <r>  0.0284  0.0115  0.0000  0.0344  0.0000  0.0000  0.0000  0.0000  0.0000 </r>
        <r>  0.0284  0.0115  0.0000  0.0344  0.0000  0.0000  0.0000  0.0000  0.0000 </r>
        <r>  0.0284  0.0115  0.0000  0.0344  0.0000  0.0000  0.0000  0.0000  0.0000 </r>
       </set>
       <set comment="band 42">
        <r>  0.0000  0.0000  0.0056  0.0000  0.0000  0.0000  0.0000  0.0000  0.0000 </r>
        <r>  0.0000  0.0000  0.0022  0.0000  0.0000  0.0000  0.0000  0.0000  0.0000 </r>
        <r>  0.0000  0.0000  0.0022  0.0000  0.0000  0.0000  0.0000  0.0000  0.0000 </r>
        <r>  0.0000  0.0000  0.0056  0.0000  0.0000  0.0000  0.0000  0.0000  0.0000 </r>
        <r>  0.0000  0.0000  0.0018  0.0000  0.0000  0.0000  0.0000  0.0000  0.0000 </r>
        <r>  0.0000  0.0000  0.0061  0.0000  0.0000  0.0000  0.0000  0.0000  0.0000 </r>
        <r>  0.0000  0.0000  0.0061  0.0000  0.0000  0.0000  0.0000  0.0000  0.0000 </r>
        <r>  0.0000  0.0000  0.0018  0.0000  0.0000  0.0000  0.0000  0.0000  0.0000 </r>
       </set>
       <set comment="band 43">
        <r>  0.0000  0.0000  0.0022  0.0000  0.0000  0.0000  0.0000  0.0000  0.0000 </r>
        <r>  0.0000  0.0000  0.0056  0.0000  0.0000  0.0000  0.0000  0.0000  0.0000 </r>
        <r>  0.0000  0.0000  0.0056  0.0000  0.0000  0.0000  0.0000  0.0000  0.0000 </r>
        <r>  0.0000  0.0000  0.0022  0.0000  0.0000  0.0000  0.0000  0.0000  0.0000 </r>
        <r>  0.0000  0.0000  0.0061  0.0000  0.0000  0.0000  0.0000  0.0000  0.0000 </r>
        <r>  0.0000  0.0000  0.0018  0.0000  0.0000  0.0000  0.0000  0.0000  0.0000 </r>
        <r>  0.0000  0.0000  0.0018  0.0000  0.0000  0.0000  0.0000  0.0000  0.0000 </r>
        <r>  0.0000  0.0000  0.0061  0.0000  0.0000  0.0000  0.0000  0.0000  0.0000 </r>
       </set>
       <set comment="band 44">
        <r>  0.0000  0.0000  0.0032  0.0000  0.0000  0.0000  0.0000  0.0000  0.0000 </r>
        <r>  0.0000  0.0000  0.0032  0.0000  0.0000  0.0000  0.0000  0.0000  0.0000 </r>
        <r>  0.0000  0.0000  0.0032  0.0000  0.0000  0.0000  0.0000  0.0000  0.0000 </r>
        <r>  0.0000  0.0000  0.0032  0.0000  0.0000  0.0000  0.0000  0.0000  0.0000 </r>
        <r>  0.0000  0.0000  0.0032  0.0000  0.0000  0.0000  0.0000  0.0000  0.0000 </r>
        <r>  0.0000  0.0000  0.0032  0.0000  0.0000  0.0000  0.0000  0.0000  0.0000 </r>
        <r>  0.0000  0.0000  0.0032  0.0000  0.0000  0.0000  0.0000  0.0000  0.0000 </r>
        <r>  0.0000  0.0000  0.0032  0.0000  0.0000  0.0000  0.0000  0.0000  0.0000 </r>
       </set>
       <set comment="band 45">
        <r>  0.0005  0.0003  0.0000  0.0005  0.0000  0.0000  0.0000  0.0000  0.0000 </r>
        <r>  0.0022  0.0003  0.0000  0.0002  0.0000  0.0000  0.0000  0.0000  0.0000 </r>
        <r>  0.0022  0.0003  0.0000  0.0002  0.0000  0.0000  0.0000  0.0000  0.0000 </r>
        <r>  0.0005  0.0003  0.0000  0.0005  0.0000  0.0000  0.0000  0.0000  0.0000 </r>
        <r>  0.0017  0.0002  0.0000  0.0001  0.0000  0.0000  0.0000  0.0000  0.0000 </r>
        <r>  0.0009  0.0004  0.0000  0.0007  0.0000  0.0000  0.0000  0.0000  0.0000 </r>
        <r>  0.0009  0.0004  0.0000  0.0007  0.0000  0.0000  0.0000  0.0000  0.0000 </r>
        <r>  0.0017  0.0002  0.0000  0.0001  0.0000  0.0000  0.0000  0.0000  0.0000 </r>
       </set>
       <set comment="band 46">
        <r>  0.0022  0.0001  0.0000  0.0004  0.0000  0.0000  0.0000  0.0000  0.0000 </r>
        <r>  0.0005  0.0001  0.0000  0.0007  0.0000  0.0000  0.0000  0.0000  0.0000 </r>
        <r>  0.0005  0.0001  0.0000  0.0007  0.0000  0.0000  0.0000  0.0000  0.0000 </r>
        <r>  0.0022  0.0001  0.0000  0.0004  0.0000  0.0000  0.0000  0.0000  0.0000 </r>
        <r>  0.0009  0.0002  0.0000  0.0008  0.0000  0.0000  0.0000  0.0000  0.0000 </r>
        <r>  0.0017  0.0000  0.0000  0.0003  0.0000  0.0000  0.0000  0.0000  0.0000 </r>
        <r>  0.0017  0.0000  0.0000  0.0003  0.0000  0.0000  0.0000  0.0000  0.0000 </r>
        <r>  0.0009  0.0002  0.0000  0.0008  0.0000  0.0000  0.0000  0.0000  0.0000 </r>
       </set>
       <set comment="band 47">
        <r>  0.0000  0.0000  0.0047  0.0000  0.0000  0.0000  0.0000  0.0000  0.0000 </r>
        <r>  0.0000  0.0000  0.0047  0.0000  0.0000  0.0000  0.0000  0.0000  0.0000 </r>
        <r>  0.0000  0.0000  0.0047  0.0000  0.0000  0.0000  0.0000  0.0000  0.0000 </r>
        <r>  0.0000  0.0000  0.0047  0.0000  0.0000  0.0000  0.0000  0.0000  0.0000 </r>
        <r>  0.0000  0.0000  0.0047  0.0000  0.0000  0.0000  0.0000  0.0000  0.0000 </r>
        <r>  0.0000  0.0000  0.0047  0.0000  0.0000  0.0000  0.0000  0.0000  0.0000 </r>
        <r>  0.0000  0.0000  0.0047  0.0000  0.0000  0.0000  0.0000  0.0000  0.0000 </r>
        <r>  0.0000  0.0000  0.0047  0.0000  0.0000  0.0000  0.0000  0.0000  0.0000 </r>
       </set>
       <set comment="band 48">
        <r>  0.0168  0.0250  0.0000  0.0184  0.0000  0.0000  0.0000  0.0000  0.0000 </r>
        <r>  0.0168  0.0250  0.0000  0.0184  0.0000  0.0000  0.0000  0.0000  0.0000 </r>
        <r>  0.0168  0.0250  0.0000  0.0184  0.0000  0.0000  0.0000  0.0000  0.0000 </r>
        <r>  0.0168  0.0250  0.0000  0.0184  0.0000  0.0000  0.0000  0.0000  0.0000 </r>
        <r>  0.0168  0.0250  0.0000  0.0184  0.0000  0.0000  0.0000  0.0000  0.0000 </r>
        <r>  0.0168  0.0250  0.0000  0.0184  0.0000  0.0000  0.0000  0.0000  0.0000 </r>
        <r>  0.0168  0.0250  0.0000  0.0184  0.0000  0.0000  0.0000  0.0000  0.0000 </r>
        <r>  0.0168  0.0250  0.0000  0.0184  0.0000  0.0000  0.0000  0.0000  0.0000 </r>
       </set>
       <set comment="band 49">
        <r>  0.0000  0.0064  0.0000  0.0073  0.0000  0.0000  0.0000  0.0000  0.0000 </r>
        <r>  0.0000  0.0064  0.0000  0.0073  0.0000  0.0000  0.0000  0.0000  0.0000 </r>
        <r>  0.0000  0.0064  0.0000  0.0073  0.0000  0.0000  0.0000  0.0000  0.0000 </r>
        <r>  0.0000  0.0064  0.0000  0.0073  0.0000  0.0000  0.0000  0.0000  0.0000 </r>
        <r>  0.0000  0.0064  0.0000  0.0073  0.0000  0.0000  0.0000  0.0000  0.0000 </r>
        <r>  0.0000  0.0064  0.0000  0.0073  0.0000  0.0000  0.0000  0.0000  0.0000 </r>
        <r>  0.0000  0.0064  0.0000  0.0073  0.0000  0.0000  0.0000  0.0000  0.0000 </r>
        <r>  0.0000  0.0064  0.0000  0.0073  0.0000  0.0000  0.0000  0.0000  0.0000 </r>
       </set>
       <set comment="band 50">
        <r>  0.0029  0.0044  0.0000  0.0030  0.0000  0.0000  0.0000  0.0000  0.0000 </r>
        <r>  0.0029  0.0044  0.0000  0.0030  0.0000  0.0000  0.0000  0.0000  0.0000 </r>
        <r>  0.0029  0.0044  0.0000  0.0030  0.0000  0.0000  0.0000  0.0000  0.0000 </r>
        <r>  0.0029  0.0044  0.0000  0.0030  0.0000  0.0000  0.0000  0.0000  0.0000 </r>
        <r>  0.0029  0.0044  0.0000  0.0030  0.0000  0.0000  0.0000  0.0000  0.0000 </r>
        <r>  0.0029  0.0044  0.0000  0.0030  0.0000  0.0000  0.0000  0.0000  0.0000 </r>
        <r>  0.0029  0.0044  0.0000  0.0030  0.0000  0.0000  0.0000  0.0000  0.0000 </r>
        <r>  0.0029  0.0044  0.0000  0.0030  0.0000  0.0000  0.0000  0.0000  0.0000 </r>
       </set>
       <set comment="band 51">
        <r>  0.0017  0.0001  0.0000  0.0000  0.0000  0.0000  0.0000  0.0000  0.0000 </r>
        <r>  0.0017  0.0001  0.0000  0.0000  0.0000  0.0000  0.0000  0.0000  0.0000 </r>
        <r>  0.0017  0.0001  0.0000  0.0000  0.0000  0.0000  0.0000  0.0000  0.0000 </r>
        <r>  0.0017  0.0001  0.0000  0.0000  0.0000  0.0000  0.0000  0.0000  0.0000 </r>
        <r>  0.0017  0.0001  0.0000  0.0000  0.0000  0.0000  0.0000  0.0000  0.0000 </r>
        <r>  0.0017  0.0001  0.0000  0.0000  0.0000  0.0000  0.0000  0.0000  0.0000 </r>
        <r>  0.0017  0.0001  0.0000  0.0000  0.0000  0.0000  0.0000  0.0000  0.0000 </r>
        <r>  0.0017  0.0001  0.0000  0.0000  0.0000  0.0000  0.0000  0.0000  0.0000 </r>
       </set>
       <set comment="band 52">
        <r>  0.0319  0.0508  0.0000  0.0328  0.0000  0.0000  0.0000  0.0000  0.0000 </r>
        <r>  0.0076  0.0051  0.0000  0.0161  0.0000  0.0000  0.0000  0.0000  0.0000 </r>
        <r>  0.0076  0.0051  0.0000  0.0161  0.0000  0.0000  0.0000  0.0000  0.0000 </r>
        <r>  0.0319  0.0508  0.0000  0.0328  0.0000  0.0000  0.0000  0.0000  0.0000 </r>
        <r>  0.0102  0.0242  0.0000  0.0113  0.0000  0.0000  0.0000  0.0000  0.0000 </r>
        <r>  0.0292  0.0317  0.0000  0.0376  0.0000  0.0000  0.0000  0.0000  0.0000 </r>
        <r>  0.0292  0.0317  0.0000  0.0376  0.0000  0.0000  0.0000  0.0000  0.0000 </r>
        <r>  0.0102  0.0242  0.0000  0.0113  0.0000  0.0000  0.0000  0.0000  0.0000 </r>
       </set>
       <set comment="band 53">
        <r>  0.0076  0.0078  0.0000  0.0134  0.0000  0.0000  0.0000  0.0000  0.0000 </r>
        <r>  0.0319  0.0535  0.0000  0.0301  0.0000  0.0000  0.0000  0.0000  0.0000 </r>
        <r>  0.0319  0.0535  0.0000  0.0301  0.0000  0.0000  0.0000  0.0000  0.0000 </r>
        <r>  0.0076  0.0078  0.0000  0.0134  0.0000  0.0000  0.0000  0.0000  0.0000 </r>
        <r>  0.0292  0.0344  0.0000  0.0350  0.0000  0.0000  0.0000  0.0000  0.0000 </r>
        <r>  0.0102  0.0269  0.0000  0.0086  0.0000  0.0000  0.0000  0.0000  0.0000 </r>
        <r>  0.0102  0.0269  0.0000  0.0086  0.0000  0.0000  0.0000  0.0000  0.0000 </r>
        <r>  0.0292  0.0344  0.0000  0.0350  0.0000  0.0000  0.0000  0.0000  0.0000 </r>
       </set>
       <set comment="band 54">
        <r>  0.0000  0.0000  0.0073  0.0000  0.0000  0.0000  0.0000  0.0000  0.0000 </r>
        <r>  0.0000  0.0000  0.0044  0.0000  0.0000  0.0000  0.0000  0.0000  0.0000 </r>
        <r>  0.0000  0.0000  0.0044  0.0000  0.0000  0.0000  0.0000  0.0000  0.0000 </r>
        <r>  0.0000  0.0000  0.0073  0.0000  0.0000  0.0000  0.0000  0.0000  0.0000 </r>
        <r>  0.0000  0.0000  0.0041  0.0000  0.0000  0.0000  0.0000  0.0000  0.0000 </r>
        <r>  0.0000  0.0000  0.0075  0.0000  0.0000  0.0000  0.0000  0.0000  0.0000 </r>
        <r>  0.0000  0.0000  0.0075  0.0000  0.0000  0.0000  0.0000  0.0000  0.0000 </r>
        <r>  0.0000  0.0000  0.0041  0.0000  0.0000  0.0000  0.0000  0.0000  0.0000 </r>
       </set>
       <set comment="band 55">
        <r>  0.0000  0.0000  0.0044  0.0000  0.0000  0.0000  0.0000  0.0000  0.0000 </r>
        <r>  0.0000  0.0000  0.0073  0.0000  0.0000  0.0000  0.0000  0.0000  0.0000 </r>
        <r>  0.0000  0.0000  0.0073  0.0000  0.0000  0.0000  0.0000  0.0000  0.0000 </r>
        <r>  0.0000  0.0000  0.0044  0.0000  0.0000  0.0000  0.0000  0.0000  0.0000 </r>
        <r>  0.0000  0.0000  0.0075  0.0000  0.0000  0.0000  0.0000  0.0000  0.0000 </r>
        <r>  0.0000  0.0000  0.0041  0.0000  0.0000  0.0000  0.0000  0.0000  0.0000 </r>
        <r>  0.0000  0.0000  0.0041  0.0000  0.0000  0.0000  0.0000  0.0000  0.0000 </r>
        <r>  0.0000  0.0000  0.0075  0.0000  0.0000  0.0000  0.0000  0.0000  0.0000 </r>
       </set>
       <set comment="band 56">
        <r>  0.0000  0.0000  0.0031  0.0000  0.0000  0.0000  0.0000  0.0000  0.0000 </r>
        <r>  0.0000  0.0000  0.0031  0.0000  0.0000  0.0000  0.0000  0.0000  0.0000 </r>
        <r>  0.0000  0.0000  0.0031  0.0000  0.0000  0.0000  0.0000  0.0000  0.0000 </r>
        <r>  0.0000  0.0000  0.0031  0.0000  0.0000  0.0000  0.0000  0.0000  0.0000 </r>
        <r>  0.0000  0.0000  0.0031  0.0000  0.0000  0.0000  0.0000  0.0000  0.0000 </r>
        <r>  0.0000  0.0000  0.0031  0.0000  0.0000  0.0000  0.0000  0.0000  0.0000 </r>
        <r>  0.0000  0.0000  0.0031  0.0000  0.0000  0.0000  0.0000  0.0000  0.0000 </r>
        <r>  0.0000  0.0000  0.0031  0.0000  0.0000  0.0000  0.0000  0.0000  0.0000 </r>
       </set>
       <set comment="band 57">
        <r>  0.0001  0.0007  0.0000  0.0008  0.0000  0.0000  0.0000  0.0000  0.0000 </r>
        <r>  0.0001  0.0007  0.0000  0.0008  0.0000  0.0000  0.0000  0.0000  0.0000 </r>
        <r>  0.0001  0.0007  0.0000  0.0008  0.0000  0.0000  0.0000  0.0000  0.0000 </r>
        <r>  0.0001  0.0007  0.0000  0.0008  0.0000  0.0000  0.0000  0.0000  0.0000 </r>
        <r>  0.0001  0.0007  0.0000  0.0008  0.0000  0.0000  0.0000  0.0000  0.0000 </r>
        <r>  0.0001  0.0007  0.0000  0.0008  0.0000  0.0000  0.0000  0.0000  0.0000 </r>
        <r>  0.0001  0.0007  0.0000  0.0008  0.0000  0.0000  0.0000  0.0000  0.0000 </r>
        <r>  0.0001  0.0007  0.0000  0.0008  0.0000  0.0000  0.0000  0.0000  0.0000 </r>
       </set>
       <set comment="band 58">
        <r>  0.0000  0.0002  0.0000  0.0004  0.0000  0.0000  0.0000  0.0000  0.0000 </r>
        <r>  0.0000  0.0002  0.0000  0.0004  0.0000  0.0000  0.0000  0.0000  0.0000 </r>
        <r>  0.0000  0.0002  0.0000  0.0004  0.0000  0.0000  0.0000  0.0000  0.0000 </r>
        <r>  0.0000  0.0002  0.0000  0.0004  0.0000  0.0000  0.0000  0.0000  0.0000 </r>
        <r>  0.0000  0.0002  0.0000  0.0004  0.0000  0.0000  0.0000  0.0000  0.0000 </r>
        <r>  0.0000  0.0002  0.0000  0.0004  0.0000  0.0000  0.0000  0.0000  0.0000 </r>
        <r>  0.0000  0.0002  0.0000  0.0004  0.0000  0.0000  0.0000  0.0000  0.0000 </r>
        <r>  0.0000  0.0002  0.0000  0.0004  0.0000  0.0000  0.0000  0.0000  0.0000 </r>
       </set>
       <set comment="band 59">
        <r>  0.0000  0.0000  0.0001  0.0000  0.0000  0.0000  0.0000  0.0000  0.0000 </r>
        <r>  0.0000  0.0000  0.0001  0.0000  0.0000  0.0000  0.0000  0.0000  0.0000 </r>
        <r>  0.0000  0.0000  0.0001  0.0000  0.0000  0.0000  0.0000  0.0000  0.0000 </r>
        <r>  0.0000  0.0000  0.0001  0.0000  0.0000  0.0000  0.0000  0.0000  0.0000 </r>
        <r>  0.0000  0.0000  0.0001  0.0000  0.0000  0.0000  0.0000  0.0000  0.0000 </r>
        <r>  0.0000  0.0000  0.0001  0.0000  0.0000  0.0000  0.0000  0.0000  0.0000 </r>
        <r>  0.0000  0.0000  0.0001  0.0000  0.0000  0.0000  0.0000  0.0000  0.0000 </r>
        <r>  0.0000  0.0000  0.0001  0.0000  0.0000  0.0000  0.0000  0.0000  0.0000 </r>
       </set>
       <set comment="band 60">
        <r>  0.0009  0.0002  0.0000  0.0002  0.0000  0.0000  0.0000  0.0000  0.0000 </r>
        <r>  0.0019  0.0010  0.0000  0.0005  0.0000  0.0000  0.0000  0.0000  0.0000 </r>
        <r>  0.0019  0.0010  0.0000  0.0005  0.0000  0.0000  0.0000  0.0000  0.0000 </r>
        <r>  0.0009  0.0002  0.0000  0.0002  0.0000  0.0000  0.0000  0.0000  0.0000 </r>
        <r>  0.0001  0.0001  0.0000  0.0002  0.0000  0.0000  0.0000  0.0000  0.0000 </r>
        <r>  0.0027  0.0011  0.0000  0.0004  0.0000  0.0000  0.0000  0.0000  0.0000 </r>
        <r>  0.0027  0.0011  0.0000  0.0004  0.0000  0.0000  0.0000  0.0000  0.0000 </r>
        <r>  0.0001  0.0001  0.0000  0.0002  0.0000  0.0000  0.0000  0.0000  0.0000 </r>
       </set>
       <set comment="band 61">
        <r>  0.0019  0.0010  0.0000  0.0005  0.0000  0.0000  0.0000  0.0000  0.0000 </r>
        <r>  0.0009  0.0002  0.0000  0.0002  0.0000  0.0000  0.0000  0.0000  0.0000 </r>
        <r>  0.0009  0.0002  0.0000  0.0002  0.0000  0.0000  0.0000  0.0000  0.0000 </r>
        <r>  0.0019  0.0010  0.0000  0.0005  0.0000  0.0000  0.0000  0.0000  0.0000 </r>
        <r>  0.0027  0.0011  0.0000  0.0005  0.0000  0.0000  0.0000  0.0000  0.0000 </r>
        <r>  0.0001  0.0001  0.0000  0.0003  0.0000  0.0000  0.0000  0.0000  0.0000 </r>
        <r>  0.0001  0.0001  0.0000  0.0003  0.0000  0.0000  0.0000  0.0000  0.0000 </r>
        <r>  0.0027  0.0011  0.0000  0.0005  0.0000  0.0000  0.0000  0.0000  0.0000 </r>
       </set>
       <set comment="band 62">
        <r>  0.0000  0.0000  0.0018  0.0000  0.0000  0.0000  0.0000  0.0000  0.0000 </r>
        <r>  0.0000  0.0000  0.0018  0.0000  0.0000  0.0000  0.0000  0.0000  0.0000 </r>
        <r>  0.0000  0.0000  0.0018  0.0000  0.0000  0.0000  0.0000  0.0000  0.0000 </r>
        <r>  0.0000  0.0000  0.0018  0.0000  0.0000  0.0000  0.0000  0.0000  0.0000 </r>
        <r>  0.0000  0.0000  0.0018  0.0000  0.0000  0.0000  0.0000  0.0000  0.0000 </r>
        <r>  0.0000  0.0000  0.0018  0.0000  0.0000  0.0000  0.0000  0.0000  0.0000 </r>
        <r>  0.0000  0.0000  0.0018  0.0000  0.0000  0.0000  0.0000  0.0000  0.0000 </r>
        <r>  0.0000  0.0000  0.0018  0.0000  0.0000  0.0000  0.0000  0.0000  0.0000 </r>
       </set>
       <set comment="band 63">
        <r>  0.0014  0.0063  0.0000  0.0062  0.0000  0.0000  0.0000  0.0000  0.0000 </r>
        <r>  0.0014  0.0063  0.0000  0.0062  0.0000  0.0000  0.0000  0.0000  0.0000 </r>
        <r>  0.0014  0.0063  0.0000  0.0062  0.0000  0.0000  0.0000  0.0000  0.0000 </r>
        <r>  0.0014  0.0063  0.0000  0.0062  0.0000  0.0000  0.0000  0.0000  0.0000 </r>
        <r>  0.0014  0.0063  0.0000  0.0062  0.0000  0.0000  0.0000  0.0000  0.0000 </r>
        <r>  0.0014  0.0063  0.0000  0.0062  0.0000  0.0000  0.0000  0.0000  0.0000 </r>
        <r>  0.0014  0.0063  0.0000  0.0062  0.0000  0.0000  0.0000  0.0000  0.0000 </r>
        <r>  0.0014  0.0063  0.0000  0.0062  0.0000  0.0000  0.0000  0.0000  0.0000 </r>
       </set>
       <set comment="band 64">
        <r>  0.0000  0.0009  0.0000  0.0024  0.0000  0.0000  0.0000  0.0000  0.0000 </r>
        <r>  0.0000  0.0009  0.0000  0.0024  0.0000  0.0000  0.0000  0.0000  0.0000 </r>
        <r>  0.0000  0.0009  0.0000  0.0024  0.0000  0.0000  0.0000  0.0000  0.0000 </r>
        <r>  0.0000  0.0009  0.0000  0.0024  0.0000  0.0000  0.0000  0.0000  0.0000 </r>
        <r>  0.0000  0.0009  0.0000  0.0024  0.0000  0.0000  0.0000  0.0000  0.0000 </r>
        <r>  0.0000  0.0009  0.0000  0.0024  0.0000  0.0000  0.0000  0.0000  0.0000 </r>
        <r>  0.0000  0.0009  0.0000  0.0024  0.0000  0.0000  0.0000  0.0000  0.0000 </r>
        <r>  0.0000  0.0009  0.0000  0.0024  0.0000  0.0000  0.0000  0.0000  0.0000 </r>
       </set>
      </set>
     </set>
    </set>
   </array>
  </projected>
 </calculation>
 <structure name="finalpos" >
  <crystal>
   <varray name="basis" >
    <v>       4.92941660       0.00000000       0.00000000 </v>
    <v>      -2.46470830       4.26900000       0.00000000 </v>
    <v>       0.00000000       0.00000000      20.00000000 </v>
   </varray>
   <i name="volume">    420.87358917 </i>
   <varray name="rec_basis" >
    <v>       0.20286376       0.11712345      -0.00000000 </v>
    <v>       0.00000000       0.23424690       0.00000000 </v>
    <v>       0.00000000      -0.00000000       0.05000000 </v>
   </varray>
  </crystal>
  <varray name="positions" >
   <v>       0.33333333       0.16666667       0.50000000 </v>
   <v>       0.83333333       0.16666667       0.50000000 </v>
   <v>       0.33333333       0.66666667       0.50000000 </v>
   <v>       0.83333333       0.66666667       0.50000000 </v>
   <v>       0.16666667       0.33333333       0.50000000 </v>
   <v>       0.66666667       0.33333333       0.50000000 </v>
   <v>       0.16666667       0.83333333       0.50000000 </v>
   <v>       0.66666667       0.83333333       0.50000000 </v>
  </varray>
 </structure>
</modeling>
