   4   4   1   0
  0.5258519E+02  0.4266220E-09  0.2465189E-09  0.2000000E-08  0.5000000E-15
   1.0000000000000000E-004
  CAR 
 C                                       
      5.00000000    -15.00000000 3000     -5.04999062      1.00000000
    -15.000  0.7197E+03  0.4799E+01
    -14.993  0.7950E-01  0.4800E+01
    -14.987  0.6211E-02  0.4800E+01
    -14.980  0.2080E-03  0.4800E+01
    -14.973  0.2960E-05  0.4800E+01
    -14.967  0.1779E-07  0.4800E+01
    -14.960  0.4486E-10  0.4800E+01
    -14.953  0.4809E-13  0.4800E+01
    -14.947  0.9508E-12  0.4800E+01
    -14.940  0.6806E-09  0.4800E+01
    -14.933  0.2038E-06  0.4800E+01
    -14.927  0.2566E-04  0.4800E+01
    -14.920  0.1367E-02  0.4800E+01
    -14.913  0.3102E-01  0.4800E+01
    -14.907  0.3026E+00  0.4802E+01
    -14.900  0.1279E+01  0.4811E+01
    -14.893  0.2360E+01  0.4827E+01
    -14.887  0.1906E+01  0.4839E+01
    -14.880  0.6732E+00  0.4844E+01
    -14.873  0.1034E+00  0.4844E+01
    -14.867  0.6857E-02  0.4844E+01
    -14.860  0.1959E-03  0.4844E+01
    -14.853  0.1204E-03  0.4844E+01
    -14.847  0.4382E-02  0.4844E+01
    -14.840  0.7343E-01  0.4845E+01
    -14.833  0.5763E+00  0.4849E+01
    -14.827  0.2198E+01  0.4863E+01
    -14.820  0.4175E+01  0.4891E+01
    -14.813  0.3970E+01  0.4918E+01
    -14.807  0.1863E+01  0.4930E+01
    -14.800  0.4218E+00  0.4933E+01
    -14.793  0.4480E-01  0.4933E+01
    -14.787  0.2175E-02  0.4933E+01
    -14.780  0.4710E-04  0.4933E+01
    -14.773  0.4456E-06  0.4933E+01
    -14.767  0.1812E-08  0.4933E+01
    -14.760  0.3129E-11  0.4933E+01
    -14.753  0.2220E-14  0.4933E+01
    -14.747  0.0000E+00  0.4933E+01
    -14.740  0.0000E+00  0.4933E+01
    -14.733  0.0000E+00  0.4933E+01
    -14.727  0.0000E+00  0.4933E+01
    -14.720  0.0000E+00  0.4933E+01
    -14.713  0.0000E+00  0.4933E+01
    -14.707  0.0000E+00  0.4933E+01
    -14.700  0.0000E+00  0.4933E+01
    -14.693  0.0000E+00  0.4933E+01
    -14.687  0.0000E+00  0.4933E+01
    -14.680  0.0000E+00  0.4933E+01
    -14.673  0.1850E-15  0.4933E+01
    -14.667  0.3461E-12  0.4933E+01
    -14.660  0.2576E-09  0.4933E+01
    -14.653  0.8024E-07  0.4933E+01
    -14.647  0.1050E-04  0.4933E+01
    -14.640  0.5815E-03  0.4933E+01
    -14.633  0.1372E-01  0.4933E+01
    -14.627  0.1390E+00  0.4934E+01
    -14.620  0.6101E+00  0.4938E+01
    -14.613  0.1169E+01  0.4946E+01
    -14.607  0.9874E+00  0.4953E+01
    -14.600  0.4741E+00  0.4956E+01
    -14.593  0.8205E+00  0.4961E+01
    -14.587  0.2365E+01  0.4977E+01
    -14.580  0.3738E+01  0.5002E+01
    -14.573  0.3479E+01  0.5025E+01
    -14.567  0.2041E+01  0.5039E+01
    -14.560  0.6940E+00  0.5044E+01
    -14.553  0.1199E+00  0.5044E+01
    -14.547  0.9669E-02  0.5044E+01
    -14.540  0.3470E-03  0.5044E+01
    -14.533  0.5398E-05  0.5044E+01
    -14.527  0.3581E-07  0.5044E+01
    -14.520  0.1003E-09  0.5044E+01
    -14.513  0.1180E-12  0.5044E+01
    -14.507  0.0000E+00  0.5044E+01
    -14.500  0.0000E+00  0.5044E+01
    -14.493  0.0000E+00  0.5044E+01
    -14.486  0.0000E+00  0.5044E+01
    -14.480  0.0000E+00  0.5044E+01
    -14.473  0.0000E+00  0.5044E+01
    -14.466  0.1276E-12  0.5044E+01
    -14.460  0.1080E-09  0.5044E+01
    -14.453  0.3837E-07  0.5044E+01
    -14.446  0.5766E-05  0.5044E+01
    -14.440  0.3705E-03  0.5044E+01
    -14.433  0.1033E-01  0.5045E+01
    -14.426  0.1275E+00  0.5045E+01
    -14.420  0.7134E+00  0.5050E+01
    -14.413  0.1849E+01  0.5062E+01
    -14.406  0.2259E+01  0.5078E+01
    -14.400  0.1305E+01  0.5086E+01
    -14.393  0.3530E+00  0.5089E+01
    -14.386  0.4381E-01  0.5089E+01
    -14.380  0.2436E-02  0.5089E+01
    -14.373  0.5939E-04  0.5089E+01
    -14.366  0.6399E-06  0.5089E+01
    -14.360  0.2768E-05  0.5089E+01
    -14.353  0.1996E-03  0.5089E+01
    -14.346  0.6209E-02  0.5089E+01
    -14.340  0.8501E-01  0.5089E+01
    -14.333  0.5284E+00  0.5093E+01
    -14.326  0.1551E+01  0.5103E+01
    -14.320  0.2231E+01  0.5118E+01
    -14.313  0.1599E+01  0.5129E+01
    -14.306  0.5630E+00  0.5133E+01
    -14.300  0.9373E-01  0.5133E+01
    -14.293  0.7415E-02  0.5133E+01
    -14.286  0.1034E-01  0.5133E+01
    -14.280  0.1371E+00  0.5134E+01
    -14.273  0.8033E+00  0.5140E+01
    -14.266  0.2049E+01  0.5153E+01
    -14.260  0.2287E+01  0.5169E+01
    -14.253  0.1117E+01  0.5176E+01
    -14.246  0.2379E+00  0.5178E+01
    -14.240  0.2194E-01  0.5178E+01
    -14.233  0.8750E-03  0.5178E+01
    -14.226  0.4064E-03  0.5178E+01
    -14.220  0.1013E-01  0.5178E+01
    -14.213  0.1125E+00  0.5179E+01
    -14.206  0.5408E+00  0.5182E+01
    -14.200  0.1133E+01  0.5190E+01
    -14.193  0.1039E+01  0.5197E+01
    -14.186  0.4171E+00  0.5199E+01
    -14.180  0.7287E-01  0.5200E+01
    -14.173  0.5501E-02  0.5200E+01
    -14.166  0.1780E-03  0.5200E+01
    -14.160  0.2446E-05  0.5200E+01
    -14.153  0.1419E-07  0.5200E+01
    -14.146  0.3455E-10  0.5200E+01
    -14.140  0.3515E-13  0.5200E+01
    -14.133  0.0000E+00  0.5200E+01
    -14.126  0.6086E-13  0.5200E+01
    -14.120  0.5610E-10  0.5200E+01
    -14.113  0.2164E-07  0.5200E+01
    -14.106  0.3514E-05  0.5200E+01
    -14.100  0.2424E-03  0.5200E+01
    -14.093  0.7208E-02  0.5200E+01
    -14.086  0.9436E-01  0.5201E+01
    -14.080  0.5619E+00  0.5204E+01
    -14.073  0.1588E+01  0.5215E+01
    -14.066  0.2218E+01  0.5230E+01
    -14.060  0.1558E+01  0.5240E+01
    -14.053  0.5409E+00  0.5244E+01
    -14.046  0.8897E-01  0.5244E+01
    -14.040  0.6650E-02  0.5244E+01
    -14.033  0.2188E-03  0.5244E+01
    -14.026  0.1087E-04  0.5244E+01
    -14.020  0.4685E-03  0.5244E+01
    -14.013  0.1226E-01  0.5245E+01
    -14.006  0.1424E+00  0.5245E+01
    -14.000  0.7532E+00  0.5251E+01
    -13.993  0.1869E+01  0.5263E+01
    -13.986  0.2223E+01  0.5278E+01
    -13.980  0.1273E+01  0.5286E+01
    -13.973  0.3458E+00  0.5289E+01
    -13.966  0.4374E-01  0.5289E+01
    -13.960  0.1258E-01  0.5289E+01
    -13.953  0.1374E+00  0.5290E+01
    -13.946  0.8042E+00  0.5295E+01
    -13.940  0.2050E+01  0.5309E+01
    -13.933  0.2286E+01  0.5324E+01
    -13.926  0.1116E+01  0.5332E+01
    -13.920  0.2375E+00  0.5333E+01
    -13.913  0.2189E-01  0.5333E+01
    -13.906  0.8659E-03  0.5333E+01
    -13.900  0.1459E-04  0.5333E+01
    -13.893  0.1038E-06  0.5333E+01
    -13.886  0.3106E-09  0.5333E+01
    -13.880  0.4439E-12  0.5333E+01
    -13.873  0.5104E-10  0.5333E+01
    -13.866  0.1994E-07  0.5333E+01
    -13.860  0.3279E-05  0.5333E+01
    -13.853  0.2291E-03  0.5333E+01
    -13.846  0.6893E-02  0.5333E+01
    -13.840  0.9130E-01  0.5334E+01
    -13.833  0.5497E+00  0.5338E+01
    -13.826  0.1570E+01  0.5348E+01
    -13.820  0.2217E+01  0.5363E+01
    -13.813  0.1576E+01  0.5373E+01
    -13.806  0.5542E+00  0.5377E+01
    -13.800  0.9316E-01  0.5378E+01
    -13.793  0.2279E-01  0.5378E+01
    -13.786  0.1533E+00  0.5379E+01
    -13.780  0.6438E+00  0.5383E+01
    -13.773  0.1182E+01  0.5391E+01
    -13.766  0.9493E+00  0.5397E+01
    -13.760  0.3335E+00  0.5400E+01
    -13.753  0.5096E-01  0.5400E+01
    -13.746  0.3361E-02  0.5400E+01
    -13.740  0.9482E-04  0.5400E+01
    -13.733  0.1136E-05  0.5400E+01
    -13.726  0.5733E-08  0.5400E+01
    -13.720  0.1214E-10  0.5400E+01
    -13.713  0.1073E-13  0.5400E+01
    -13.706  0.0000E+00  0.5400E+01
    -13.700  0.0000E+00  0.5400E+01
    -13.693  0.0000E+00  0.5400E+01
    -13.686  0.0000E+00  0.5400E+01
    -13.680  0.0000E+00  0.5400E+01
    -13.673  0.0000E+00  0.5400E+01
    -13.666  0.0000E+00  0.5400E+01
    -13.660  0.1990E-12  0.5400E+01
    -13.653  0.1726E-09  0.5400E+01
    -13.646  0.6258E-07  0.5400E+01
    -13.640  0.9534E-05  0.5400E+01
    -13.633  0.6138E-03  0.5400E+01
    -13.626  0.1685E-01  0.5400E+01
    -13.620  0.1998E+00  0.5401E+01
    -13.613  0.1048E+01  0.5408E+01
    -13.606  0.2577E+01  0.5426E+01
    -13.600  0.3430E+01  0.5448E+01
    -13.593  0.3105E+01  0.5469E+01
    -13.586  0.2018E+01  0.5483E+01
    -13.580  0.8174E+00  0.5488E+01
    -13.573  0.4932E+00  0.5491E+01
    -13.566  0.1265E+01  0.5500E+01
    -13.560  0.2189E+01  0.5514E+01
    -13.553  0.1877E+01  0.5527E+01
    -13.546  0.7853E+00  0.5532E+01
    -13.540  0.1559E+00  0.5533E+01
    -13.533  0.1417E-01  0.5533E+01
    -13.526  0.5718E-03  0.5533E+01
    -13.520  0.1001E-04  0.5533E+01
    -13.513  0.7474E-07  0.5533E+01
    -13.506  0.2358E-09  0.5533E+01
    -13.499  0.3122E-12  0.5533E+01
    -13.493  0.0000E+00  0.5533E+01
    -13.486  0.0000E+00  0.5533E+01
    -13.479  0.0000E+00  0.5533E+01
    -13.473  0.0000E+00  0.5533E+01
    -13.466  0.3700E-15  0.5533E+01
    -13.459  0.7972E-12  0.5533E+01
    -13.453  0.5393E-09  0.5533E+01
    -13.446  0.1535E-06  0.5533E+01
    -13.439  0.1855E-04  0.5533E+01
    -13.433  0.9620E-03  0.5533E+01
    -13.426  0.2176E-01  0.5533E+01
    -13.419  0.2190E+00  0.5535E+01
    -13.413  0.1001E+01  0.5542E+01
    -13.406  0.2118E+01  0.5556E+01
    -13.399  0.2099E+01  0.5570E+01
    -13.393  0.9740E+00  0.5576E+01
    -13.386  0.2091E+00  0.5578E+01
    -13.379  0.2039E-01  0.5578E+01
    -13.373  0.8885E-03  0.5578E+01
    -13.366  0.3101E-03  0.5578E+01
    -13.359  0.8109E-02  0.5578E+01
    -13.353  0.9614E-01  0.5578E+01
    -13.346  0.4931E+00  0.5582E+01
    -13.339  0.1102E+01  0.5589E+01
    -13.333  0.1078E+01  0.5596E+01
    -13.326  0.4614E+00  0.5599E+01
    -13.319  0.8712E-01  0.5600E+01
    -13.313  0.3270E-01  0.5600E+01
    -13.306  0.2629E+00  0.5602E+01
    -13.299  0.1171E+01  0.5610E+01
    -13.293  0.2305E+01  0.5625E+01
    -13.286  0.2077E+01  0.5639E+01
    -13.279  0.1335E+01  0.5648E+01
    -13.273  0.1897E+01  0.5661E+01
    -13.266  0.2411E+01  0.5677E+01
    -13.259  0.1428E+01  0.5686E+01
    -13.253  0.3709E+00  0.5689E+01
    -13.246  0.4178E-01  0.5689E+01
    -13.239  0.2025E-02  0.5689E+01
    -13.233  0.4185E-04  0.5689E+01
    -13.226  0.3663E-06  0.5689E+01
    -13.219  0.1349E-08  0.5689E+01
    -13.213  0.2078E-11  0.5689E+01
    -13.206  0.1480E-14  0.5689E+01
    -13.199  0.0000E+00  0.5689E+01
    -13.193  0.0000E+00  0.5689E+01
    -13.186  0.0000E+00  0.5689E+01
    -13.179  0.2775E-13  0.5689E+01
    -13.173  0.2822E-10  0.5689E+01
    -13.166  0.1195E-07  0.5689E+01
    -13.159  0.2128E-05  0.5689E+01
    -13.153  0.1610E-03  0.5689E+01
    -13.146  0.5243E-02  0.5689E+01
    -13.139  0.7502E-01  0.5689E+01
    -13.133  0.4864E+00  0.5693E+01
    -13.126  0.1486E+01  0.5703E+01
    -13.119  0.2224E+01  0.5717E+01
    -13.113  0.1661E+01  0.5728E+01
    -13.106  0.6109E+00  0.5733E+01
    -13.099  0.1066E+00  0.5733E+01
    -13.093  0.8471E-02  0.5733E+01
    -13.086  0.2972E-03  0.5733E+01
    -13.079  0.4499E-05  0.5733E+01
    -13.073  0.2898E-07  0.5733E+01
    -13.066  0.7863E-10  0.5733E+01
    -13.059  0.8916E-13  0.5733E+01
    -13.053  0.0000E+00  0.5733E+01
    -13.046  0.0000E+00  0.5733E+01
    -13.039  0.0000E+00  0.5733E+01
    -13.033  0.0000E+00  0.5733E+01
    -13.026  0.0000E+00  0.5733E+01
    -13.019  0.0000E+00  0.5733E+01
    -13.013  0.0000E+00  0.5733E+01
    -13.006  0.0000E+00  0.5733E+01
    -12.999  0.0000E+00  0.5733E+01
    -12.993  0.0000E+00  0.5733E+01
    -12.986  0.5401E-13  0.5733E+01
    -12.979  0.5500E-10  0.5733E+01
    -12.973  0.2330E-07  0.5733E+01
    -12.966  0.4140E-05  0.5733E+01
    -12.959  0.3105E-03  0.5733E+01
    -12.953  0.9891E-02  0.5733E+01
    -12.946  0.1350E+00  0.5734E+01
    -12.939  0.7956E+00  0.5740E+01
    -12.933  0.2042E+01  0.5753E+01
    -12.926  0.2292E+01  0.5769E+01
    -12.919  0.1129E+01  0.5776E+01
    -12.913  0.2865E+00  0.5778E+01
    -12.906  0.3315E+00  0.5780E+01
    -12.899  0.9190E+00  0.5786E+01
    -12.893  0.1192E+01  0.5794E+01
    -12.886  0.6776E+00  0.5799E+01
    -12.879  0.1681E+00  0.5800E+01
    -12.873  0.1809E-01  0.5800E+01
    -12.866  0.8367E-03  0.5800E+01
    -12.859  0.1650E-04  0.5800E+01
    -12.853  0.1378E-06  0.5800E+01
    -12.846  0.4836E-09  0.5800E+01
    -12.839  0.7107E-12  0.5800E+01
    -12.833  0.3700E-15  0.5800E+01
    -12.826  0.0000E+00  0.5800E+01
    -12.819  0.0000E+00  0.5800E+01
    -12.813  0.0000E+00  0.5800E+01
    -12.806  0.0000E+00  0.5800E+01
    -12.799  0.0000E+00  0.5800E+01
    -12.793  0.0000E+00  0.5800E+01
    -12.786  0.0000E+00  0.5800E+01
    -12.779  0.0000E+00  0.5800E+01
    -12.773  0.0000E+00  0.5800E+01
    -12.766  0.0000E+00  0.5800E+01
    -12.759  0.0000E+00  0.5800E+01
    -12.753  0.0000E+00  0.5800E+01
    -12.746  0.0000E+00  0.5800E+01
    -12.739  0.0000E+00  0.5800E+01
    -12.733  0.1321E-12  0.5800E+01
    -12.726  0.1109E-09  0.5800E+01
    -12.719  0.3896E-07  0.5800E+01
    -12.713  0.5764E-05  0.5800E+01
    -12.706  0.3627E-03  0.5800E+01
    -12.699  0.9846E-02  0.5800E+01
    -12.693  0.1180E+00  0.5801E+01
    -12.686  0.6457E+00  0.5805E+01
    -12.679  0.1688E+01  0.5816E+01
    -12.673  0.2200E+01  0.5831E+01
    -12.666  0.1451E+01  0.5841E+01
    -12.659  0.4732E+00  0.5844E+01
    -12.653  0.7296E-01  0.5844E+01
    -12.646  0.5094E-02  0.5844E+01
    -12.639  0.1560E-03  0.5844E+01
    -12.633  0.2122E-05  0.5844E+01
    -12.626  0.1015E-04  0.5844E+01
    -12.619  0.6447E-03  0.5844E+01
    -12.613  0.1744E-01  0.5845E+01
    -12.606  0.2024E+00  0.5846E+01
    -12.599  0.1017E+01  0.5853E+01
    -12.593  0.2225E+01  0.5868E+01
    -12.586  0.2132E+01  0.5882E+01
    -12.579  0.8935E+00  0.5888E+01
    -12.573  0.1631E+00  0.5889E+01
    -12.566  0.1288E-01  0.5889E+01
    -12.559  0.4356E-03  0.5889E+01
    -12.553  0.6265E-05  0.5889E+01
    -12.546  0.3804E-07  0.5889E+01
    -12.539  0.9695E-10  0.5889E+01
    -12.533  0.1036E-12  0.5889E+01
    -12.526  0.0000E+00  0.5889E+01
    -12.519  0.0000E+00  0.5889E+01
    -12.513  0.0000E+00  0.5889E+01
    -12.506  0.9249E-15  0.5889E+01
    -12.499  0.1349E-11  0.5889E+01
    -12.492  0.8467E-09  0.5889E+01
    -12.486  0.2225E-06  0.5889E+01
    -12.479  0.2461E-04  0.5889E+01
    -12.472  0.1153E-02  0.5889E+01
    -12.466  0.2304E-01  0.5889E+01
    -12.459  0.1981E+00  0.5890E+01
    -12.452  0.7393E+00  0.5895E+01
    -12.446  0.1205E+01  0.5903E+01
    -12.439  0.8595E+00  0.5909E+01
    -12.432  0.2680E+00  0.5911E+01
    -12.426  0.3631E-01  0.5911E+01
    -12.419  0.2120E-02  0.5911E+01
    -12.412  0.5291E-04  0.5911E+01
    -12.406  0.5599E-06  0.5911E+01
    -12.399  0.2495E-08  0.5911E+01
    -12.392  0.4661E-11  0.5911E+01
    -12.386  0.3700E-14  0.5911E+01
    -12.379  0.0000E+00  0.5911E+01
    -12.372  0.0000E+00  0.5911E+01
    -12.366  0.0000E+00  0.5911E+01
    -12.359  0.0000E+00  0.5911E+01
    -12.352  0.0000E+00  0.5911E+01
    -12.346  0.0000E+00  0.5911E+01
    -12.339  0.0000E+00  0.5911E+01
    -12.332  0.0000E+00  0.5911E+01
    -12.326  0.0000E+00  0.5911E+01
    -12.319  0.0000E+00  0.5911E+01
    -12.312  0.6289E-14  0.5911E+01
    -12.306  0.8122E-11  0.5911E+01
    -12.299  0.4427E-08  0.5911E+01
    -12.292  0.1011E-05  0.5911E+01
    -12.286  0.9725E-04  0.5911E+01
    -12.279  0.3966E-02  0.5911E+01
    -12.272  0.6910E-01  0.5912E+01
    -12.266  0.5188E+00  0.5915E+01
    -12.259  0.1692E+01  0.5926E+01
    -12.252  0.2414E+01  0.5942E+01
    -12.246  0.1535E+01  0.5953E+01
    -12.239  0.6652E+00  0.5957E+01
    -12.232  0.1076E+01  0.5964E+01
    -12.226  0.2026E+01  0.5978E+01
    -12.219  0.2021E+01  0.5991E+01
    -12.212  0.1023E+01  0.5998E+01
    -12.206  0.2529E+00  0.6000E+01
    -12.199  0.2906E-01  0.6000E+01
    -12.192  0.1491E-02  0.6000E+01
    -12.186  0.3324E-04  0.6000E+01
    -12.179  0.3166E-06  0.6000E+01
    -12.172  0.1274E-08  0.6000E+01
    -12.166  0.2151E-11  0.6000E+01
    -12.159  0.1480E-14  0.6000E+01
    -12.152  0.0000E+00  0.6000E+01
    -12.146  0.0000E+00  0.6000E+01
    -12.139  0.0000E+00  0.6000E+01
    -12.132  0.0000E+00  0.6000E+01
    -12.126  0.0000E+00  0.6000E+01
    -12.119  0.0000E+00  0.6000E+01
    -12.112  0.0000E+00  0.6000E+01
    -12.106  0.0000E+00  0.6000E+01
    -12.099  0.0000E+00  0.6000E+01
    -12.092  0.0000E+00  0.6000E+01
    -12.086  0.0000E+00  0.6000E+01
    -12.079  0.0000E+00  0.6000E+01
    -12.072  0.0000E+00  0.6000E+01
    -12.066  0.0000E+00  0.6000E+01
    -12.059  0.0000E+00  0.6000E+01
    -12.052  0.1295E-14  0.6000E+01
    -12.046  0.1884E-11  0.6000E+01
    -12.039  0.1133E-08  0.6000E+01
    -12.032  0.2856E-06  0.6000E+01
    -12.026  0.3028E-04  0.6000E+01
    -12.019  0.1360E-02  0.6000E+01
    -12.012  0.2609E-01  0.6000E+01
    -12.006  0.2153E+00  0.6002E+01
    -11.999  0.7717E+00  0.6007E+01
    -11.992  0.1208E+01  0.6015E+01
    -11.986  0.8278E+00  0.6020E+01
    -11.979  0.2479E+00  0.6022E+01
    -11.972  0.3224E-01  0.6022E+01
    -11.966  0.1807E-02  0.6022E+01
    -11.959  0.4758E-04  0.6022E+01
    -11.952  0.3228E-03  0.6022E+01
    -11.946  0.1018E-01  0.6022E+01
    -11.939  0.1378E+00  0.6023E+01
    -11.932  0.8060E+00  0.6029E+01
    -11.926  0.2052E+01  0.6042E+01
    -11.919  0.2285E+01  0.6058E+01
    -11.912  0.1114E+01  0.6065E+01
    -11.906  0.2367E+00  0.6067E+01
    -11.899  0.2178E-01  0.6067E+01
    -11.892  0.8606E-03  0.6067E+01
    -11.886  0.1448E-04  0.6067E+01
    -11.879  0.1029E-06  0.6067E+01
    -11.872  0.3074E-09  0.6067E+01
    -11.866  0.3840E-12  0.6067E+01
    -11.859  0.0000E+00  0.6067E+01
    -11.852  0.0000E+00  0.6067E+01
    -11.846  0.0000E+00  0.6067E+01
    -11.839  0.0000E+00  0.6067E+01
    -11.832  0.3700E-15  0.6067E+01
    -11.826  0.5176E-12  0.6067E+01
    -11.819  0.3668E-09  0.6067E+01
    -11.812  0.1089E-06  0.6067E+01
    -11.806  0.1364E-04  0.6067E+01
    -11.799  0.7269E-03  0.6067E+01
    -11.792  0.1675E-01  0.6067E+01
    -11.786  0.1711E+00  0.6068E+01
    -11.779  0.8047E+00  0.6073E+01
    -11.772  0.1836E+01  0.6086E+01
    -11.766  0.2131E+01  0.6100E+01
    -11.759  0.1271E+01  0.6108E+01
    -11.752  0.3768E+00  0.6111E+01
    -11.746  0.5260E-01  0.6111E+01
    -11.739  0.3304E-02  0.6111E+01
    -11.732  0.9061E-04  0.6111E+01
    -11.726  0.1096E-05  0.6111E+01
    -11.719  0.5111E-05  0.6111E+01
    -11.712  0.3549E-03  0.6111E+01
    -11.706  0.1063E-01  0.6111E+01
    -11.699  0.1385E+00  0.6112E+01
    -11.692  0.7932E+00  0.6117E+01
    -11.686  0.2013E+01  0.6131E+01
    -11.679  0.2277E+01  0.6146E+01
    -11.672  0.1148E+01  0.6154E+01
    -11.666  0.2570E+00  0.6155E+01
    -11.659  0.2536E-01  0.6156E+01
    -11.652  0.1092E-02  0.6156E+01
    -11.646  0.2034E-04  0.6156E+01
    -11.639  0.1467E-05  0.6156E+01
    -11.632  0.1201E-03  0.6156E+01
    -11.626  0.4687E-02  0.6156E+01
    -11.619  0.7820E-01  0.6156E+01
    -11.612  0.5625E+00  0.6160E+01
    -11.606  0.1758E+01  0.6172E+01
    -11.599  0.2403E+01  0.6188E+01
    -11.592  0.1443E+01  0.6197E+01
    -11.586  0.4523E+00  0.6200E+01
    -11.579  0.5410E+00  0.6204E+01
    -11.572  0.1520E+01  0.6214E+01
    -11.566  0.2245E+01  0.6229E+01
    -11.559  0.1642E+01  0.6240E+01
    -11.552  0.6634E+00  0.6244E+01
    -11.546  0.5491E+00  0.6248E+01
    -11.539  0.1078E+01  0.6255E+01
    -11.532  0.1109E+01  0.6263E+01
    -11.526  0.5027E+00  0.6266E+01
    -11.519  0.9932E-01  0.6267E+01
    -11.512  0.8491E-02  0.6267E+01
    -11.506  0.3114E-03  0.6267E+01
    -11.499  0.4858E-05  0.6267E+01
    -11.492  0.3201E-07  0.6267E+01
    -11.485  0.8861E-10  0.6267E+01
    -11.479  0.1025E-12  0.6267E+01
    -11.472  0.0000E+00  0.6267E+01
    -11.465  0.0000E+00  0.6267E+01
    -11.459  0.0000E+00  0.6267E+01
    -11.452  0.0000E+00  0.6267E+01
    -11.445  0.0000E+00  0.6267E+01
    -11.439  0.0000E+00  0.6267E+01
    -11.432  0.1739E-13  0.6267E+01
    -11.425  0.1867E-10  0.6267E+01
    -11.419  0.8334E-08  0.6267E+01
    -11.412  0.1561E-05  0.6267E+01
    -11.405  0.1236E-03  0.6267E+01
    -11.399  0.4181E-02  0.6267E+01
    -11.392  0.6145E-01  0.6267E+01
    -11.385  0.4050E+00  0.6270E+01
    -11.379  0.1267E+01  0.6278E+01
    -11.372  0.2041E+01  0.6292E+01
    -11.365  0.1803E+01  0.6304E+01
    -11.359  0.8573E+00  0.6310E+01
    -11.352  0.2026E+00  0.6311E+01
    -11.345  0.2216E-01  0.6311E+01
    -11.339  0.3576E-02  0.6311E+01
    -11.332  0.4277E-01  0.6311E+01
    -11.325  0.3263E+00  0.6314E+01
    -11.319  0.1174E+01  0.6321E+01
    -11.312  0.2175E+01  0.6336E+01
    -11.305  0.2565E+01  0.6353E+01
    -11.299  0.2786E+01  0.6372E+01
    -11.292  0.2579E+01  0.6389E+01
    -11.285  0.1329E+01  0.6398E+01
    -11.279  0.3154E+00  0.6400E+01
    -11.272  0.3280E-01  0.6400E+01
    -11.265  0.1470E-02  0.6400E+01
    -11.259  0.2809E-04  0.6400E+01
    -11.252  0.2271E-06  0.6400E+01
    -11.245  0.7720E-09  0.6400E+01
    -11.239  0.1098E-11  0.6400E+01
    -11.232  0.7399E-15  0.6400E+01
    -11.225  0.0000E+00  0.6400E+01
    -11.219  0.0000E+00  0.6400E+01
    -11.212  0.0000E+00  0.6400E+01
    -11.205  0.0000E+00  0.6400E+01
    -11.199  0.3700E-15  0.6400E+01
    -11.192  0.6526E-12  0.6400E+01
    -11.185  0.4490E-09  0.6400E+01
    -11.179  0.1293E-06  0.6400E+01
    -11.172  0.1566E-04  0.6400E+01
    -11.165  0.8044E-03  0.6400E+01
    -11.159  0.1770E-01  0.6400E+01
    -11.152  0.1703E+00  0.6401E+01
    -11.145  0.7454E+00  0.6406E+01
    -11.139  0.1617E+01  0.6417E+01
    -11.132  0.1975E+01  0.6430E+01
    -11.125  0.1441E+01  0.6440E+01
    -11.119  0.5756E+00  0.6444E+01
    -11.112  0.1113E+00  0.6444E+01
    -11.105  0.1033E-01  0.6444E+01
    -11.099  0.1525E-01  0.6445E+01
    -11.092  0.1470E+00  0.6446E+01
    -11.085  0.6296E+00  0.6450E+01
    -11.079  0.1176E+01  0.6458E+01
    -11.072  0.9622E+00  0.6464E+01
    -11.065  0.3442E+00  0.6466E+01
    -11.059  0.5355E-01  0.6467E+01
    -11.052  0.3597E-02  0.6467E+01
    -11.045  0.1526E-03  0.6467E+01
    -11.039  0.2308E-02  0.6467E+01
    -11.032  0.4609E-01  0.6467E+01
    -11.025  0.3963E+00  0.6470E+01
    -11.019  0.1479E+01  0.6479E+01
    -11.012  0.2409E+01  0.6496E+01
    -11.005  0.1719E+01  0.6507E+01
    -10.999  0.5359E+00  0.6511E+01
    -10.992  0.7259E-01  0.6511E+01
    -10.985  0.4239E-02  0.6511E+01
    -10.979  0.1058E-03  0.6511E+01
    -10.972  0.1119E-05  0.6511E+01
    -10.965  0.4986E-08  0.6511E+01
    -10.959  0.9312E-11  0.6511E+01
    -10.952  0.7399E-14  0.6511E+01
    -10.945  0.0000E+00  0.6511E+01
    -10.939  0.6326E-13  0.6511E+01
    -10.932  0.5796E-10  0.6511E+01
    -10.925  0.2220E-07  0.6511E+01
    -10.919  0.3569E-05  0.6511E+01
    -10.912  0.2424E-03  0.6511E+01
    -10.905  0.7017E-02  0.6511E+01
    -10.899  0.8772E-01  0.6512E+01
    -10.892  0.4868E+00  0.6515E+01
    -10.885  0.1282E+01  0.6524E+01
    -10.879  0.1854E+01  0.6536E+01
    -10.872  0.1774E+01  0.6548E+01
    -10.865  0.1429E+01  0.6557E+01
    -10.859  0.1709E+01  0.6569E+01
    -10.852  0.2196E+01  0.6583E+01
    -10.845  0.1690E+01  0.6595E+01
    -10.839  0.6723E+00  0.6599E+01
    -10.832  0.1292E+00  0.6600E+01
    -10.825  0.1136E-01  0.6600E+01
    -10.819  0.4403E-03  0.6600E+01
    -10.812  0.7355E-05  0.6600E+01
    -10.805  0.2930E-06  0.6600E+01
    -10.799  0.2950E-04  0.6600E+01
    -10.792  0.1529E-02  0.6600E+01
    -10.785  0.3378E-01  0.6600E+01
    -10.779  0.3209E+00  0.6602E+01
    -10.772  0.1321E+01  0.6611E+01
    -10.765  0.2374E+01  0.6627E+01
    -10.759  0.1868E+01  0.6639E+01
    -10.752  0.6425E+00  0.6644E+01
    -10.745  0.9612E-01  0.6644E+01
    -10.739  0.6204E-02  0.6644E+01
    -10.732  0.1713E-03  0.6644E+01
    -10.725  0.2007E-05  0.6644E+01
    -10.719  0.9911E-08  0.6644E+01
    -10.712  0.2052E-10  0.6644E+01
    -10.705  0.1776E-13  0.6644E+01
    -10.699  0.0000E+00  0.6644E+01
    -10.692  0.0000E+00  0.6644E+01
    -10.685  0.0000E+00  0.6644E+01
    -10.679  0.1480E-13  0.6644E+01
    -10.672  0.1702E-10  0.6644E+01
    -10.665  0.8172E-08  0.6644E+01
    -10.659  0.1657E-05  0.6644E+01
    -10.652  0.1428E-03  0.6644E+01
    -10.645  0.5271E-02  0.6644E+01
    -10.639  0.8427E-01  0.6645E+01
    -10.632  0.5927E+00  0.6649E+01
    -10.625  0.1893E+01  0.6662E+01
    -10.619  0.2949E+01  0.6681E+01
    -10.612  0.2567E+01  0.6698E+01
    -10.605  0.1392E+01  0.6708E+01
    -10.599  0.4393E+00  0.6711E+01
    -10.592  0.6983E-01  0.6711E+01
    -10.585  0.2138E-01  0.6711E+01
    -10.579  0.1942E+00  0.6713E+01
    -10.572  0.9914E+00  0.6719E+01
    -10.565  0.2208E+01  0.6734E+01
    -10.559  0.2152E+01  0.6748E+01
    -10.552  0.9177E+00  0.6754E+01
    -10.545  0.1705E+00  0.6755E+01
    -10.539  0.1369E-01  0.6756E+01
    -10.532  0.4716E-03  0.6756E+01
    -10.525  0.6905E-05  0.6756E+01
    -10.519  0.4269E-07  0.6756E+01
    -10.512  0.1108E-09  0.6756E+01
    -10.505  0.1199E-12  0.6756E+01
    -10.498  0.0000E+00  0.6756E+01
    -10.492  0.0000E+00  0.6756E+01
    -10.485  0.0000E+00  0.6756E+01
    -10.478  0.0000E+00  0.6756E+01
    -10.472  0.7769E-14  0.6756E+01
    -10.465  0.9922E-11  0.6756E+01
    -10.458  0.5269E-08  0.6756E+01
    -10.452  0.1173E-05  0.6756E+01
    -10.445  0.1100E-03  0.6756E+01
    -10.438  0.4371E-02  0.6756E+01
    -10.432  0.7428E-01  0.6756E+01
    -10.425  0.5446E+00  0.6760E+01
    -10.418  0.1747E+01  0.6771E+01
    -10.412  0.2574E+01  0.6789E+01
    -10.405  0.2253E+01  0.6804E+01
    -10.398  0.2200E+01  0.6818E+01
    -10.392  0.2222E+01  0.6833E+01
    -10.385  0.1793E+01  0.6845E+01
    -10.378  0.2647E+01  0.6863E+01
    -10.372  0.5233E+01  0.6898E+01
    -10.365  0.6694E+01  0.6942E+01
    -10.358  0.5742E+01  0.6980E+01
    -10.352  0.4163E+01  0.7008E+01
    -10.345  0.3216E+01  0.7030E+01
    -10.338  0.2916E+01  0.7049E+01
    -10.332  0.2185E+01  0.7064E+01
    -10.325  0.1822E+01  0.7076E+01
    -10.318  0.2827E+01  0.7095E+01
    -10.312  0.3429E+01  0.7118E+01
    -10.305  0.2892E+01  0.7137E+01
    -10.298  0.2730E+01  0.7155E+01
    -10.292  0.2255E+01  0.7170E+01
    -10.285  0.1025E+01  0.7177E+01
    -10.278  0.5815E+00  0.7181E+01
    -10.272  0.1048E+01  0.7188E+01
    -10.265  0.1288E+01  0.7196E+01
    -10.258  0.1404E+01  0.7206E+01
    -10.252  0.2429E+01  0.7222E+01
    -10.245  0.3418E+01  0.7245E+01
    -10.238  0.3393E+01  0.7267E+01
    -10.232  0.2290E+01  0.7283E+01
    -10.225  0.1058E+01  0.7290E+01
    -10.218  0.1321E+01  0.7299E+01
    -10.212  0.2667E+01  0.7316E+01
    -10.205  0.3126E+01  0.7337E+01
    -10.198  0.2675E+01  0.7355E+01
    -10.192  0.2843E+01  0.7374E+01
    -10.185  0.3563E+01  0.7398E+01
    -10.178  0.5292E+01  0.7433E+01
    -10.172  0.1001E+02  0.7500E+01
    -10.165  0.1457E+02  0.7597E+01
    -10.158  0.1169E+02  0.7675E+01
    -10.152  0.4551E+01  0.7705E+01
    -10.145  0.8153E+00  0.7711E+01
    -10.138  0.8917E-01  0.7711E+01
    -10.132  0.2555E+00  0.7713E+01
    -10.125  0.1174E+01  0.7721E+01
    -10.118  0.2487E+01  0.7737E+01
    -10.112  0.2725E+01  0.7756E+01
    -10.105  0.1972E+01  0.7769E+01
    -10.098  0.1019E+01  0.7776E+01
    -10.092  0.3140E+00  0.7778E+01
    -10.085  0.2331E+00  0.7779E+01
    -10.078  0.9876E+00  0.7786E+01
    -10.072  0.2202E+01  0.7800E+01
    -10.065  0.2156E+01  0.7815E+01
    -10.058  0.9245E+00  0.7821E+01
    -10.052  0.1728E+00  0.7822E+01
    -10.045  0.1444E-01  0.7822E+01
    -10.038  0.1211E-01  0.7822E+01
    -10.032  0.1239E+00  0.7823E+01
    -10.025  0.5717E+00  0.7827E+01
    -10.018  0.1150E+01  0.7835E+01
    -10.012  0.1013E+01  0.7841E+01
    -10.005  0.3904E+00  0.7844E+01
     -9.998  0.6548E-01  0.7844E+01
     -9.992  0.4945E-02  0.7844E+01
     -9.985  0.7168E-02  0.7844E+01
     -9.978  0.1050E+00  0.7845E+01
     -9.972  0.6790E+00  0.7850E+01
     -9.965  0.1920E+01  0.7863E+01
     -9.958  0.2463E+01  0.7879E+01
     -9.952  0.1873E+01  0.7891E+01
     -9.945  0.1904E+01  0.7904E+01
     -9.938  0.2205E+01  0.7919E+01
     -9.932  0.1531E+01  0.7929E+01
     -9.925  0.5457E+00  0.7933E+01
     -9.918  0.1325E+00  0.7934E+01
     -9.912  0.2969E+00  0.7936E+01
     -9.905  0.9379E+00  0.7942E+01
     -9.898  0.1538E+01  0.7952E+01
     -9.892  0.1737E+01  0.7964E+01
     -9.885  0.1799E+01  0.7976E+01
     -9.878  0.1720E+01  0.7987E+01
     -9.872  0.1277E+01  0.7996E+01
     -9.865  0.5392E+00  0.7999E+01
     -9.858  0.1225E+00  0.8000E+01
     -9.852  0.1961E+00  0.8001E+01
     -9.845  0.9672E+00  0.8008E+01
     -9.838  0.2187E+01  0.8022E+01
     -9.832  0.2169E+01  0.8037E+01
     -9.825  0.9441E+00  0.8043E+01
     -9.818  0.1794E+00  0.8044E+01
     -9.812  0.1479E-01  0.8044E+01
     -9.805  0.5248E-03  0.8044E+01
     -9.798  0.7852E-04  0.8044E+01
     -9.792  0.2664E-02  0.8044E+01
     -9.785  0.4298E-01  0.8045E+01
     -9.778  0.2990E+00  0.8047E+01
     -9.772  0.9044E+00  0.8053E+01
     -9.765  0.1196E+01  0.8061E+01
     -9.758  0.6923E+00  0.8065E+01
     -9.752  0.1749E+00  0.8067E+01
     -9.745  0.1918E-01  0.8067E+01
     -9.738  0.1535E-02  0.8067E+01
     -9.732  0.1463E-01  0.8067E+01
     -9.725  0.1454E+00  0.8068E+01
     -9.718  0.6344E+00  0.8072E+01
     -9.712  0.1303E+01  0.8081E+01
     -9.705  0.1736E+01  0.8092E+01
     -9.698  0.2411E+01  0.8108E+01
     -9.692  0.2727E+01  0.8126E+01
     -9.685  0.2229E+01  0.8141E+01
     -9.678  0.1866E+01  0.8154E+01
     -9.672  0.1694E+01  0.8165E+01
     -9.665  0.1257E+01  0.8173E+01
     -9.658  0.5293E+00  0.8177E+01
     -9.652  0.1043E+00  0.8178E+01
     -9.645  0.9733E-02  0.8178E+01
     -9.638  0.1609E-01  0.8178E+01
     -9.632  0.1529E+00  0.8179E+01
     -9.625  0.6434E+00  0.8183E+01
     -9.618  0.1181E+01  0.8191E+01
     -9.612  0.9497E+00  0.8197E+01
     -9.605  0.3338E+00  0.8200E+01
     -9.598  0.5104E-01  0.8200E+01
     -9.592  0.3367E-02  0.8200E+01
     -9.585  0.9506E-04  0.8200E+01
     -9.578  0.1445E-05  0.8200E+01
     -9.572  0.3544E-04  0.8200E+01
     -9.565  0.1749E-02  0.8200E+01
     -9.558  0.3701E-01  0.8200E+01
     -9.552  0.3389E+00  0.8203E+01
     -9.545  0.1354E+01  0.8212E+01
     -9.538  0.2375E+01  0.8227E+01
     -9.532  0.1836E+01  0.8240E+01
     -9.525  0.6341E+00  0.8244E+01
     -9.518  0.2102E+00  0.8245E+01
     -9.512  0.6087E+00  0.8249E+01
     -9.505  0.1607E+01  0.8260E+01
     -9.498  0.2836E+01  0.8279E+01