    4    4    1    1
  0.5258519E+02  0.4266220E-09  0.2465189E-09  0.2000000E-08  0.5000000E-15
   1.0000000000000000E-004
  CAR 
 C                                       
     16     90     32

  0.0000000E+00  0.0000000E+00  0.0000000E+00  0.1111111E-01
    1      -22.278819   1.000000
    2      -17.018731   1.000000
    3      -15.990167   1.000000
    4      -10.374168   1.000000
    5       -9.165349   1.000000
    6       -5.769993   1.000000
    7       -5.769142   1.000000
    8       -5.096793   1.000000
    9       -1.059386   0.000000
   10        0.517589   0.000000
   11        1.307185   0.000000
   12        1.641344   0.000000
   13        2.569029   0.000000
   14        3.009307   0.000000
   15        4.634428   0.000000
   16        4.696283   0.000000
   17        5.312107   0.000000
   18        5.607540   0.000000
   19        5.630574   0.000000
   20        7.641223   0.000000
   21        8.390670   0.000000
   22        8.443262   0.000000
   23        8.542969   0.000000
   24        8.735262   0.000000
   25        9.231908   0.000000
   26        9.432600   0.000000
   27        9.799964   0.000000
   28        9.871368   0.000000
   29        9.881155   0.000000
   30       10.563697   0.000000
   31       10.742687   0.000000
   32       11.119804   0.000000

  0.1724138E-01  0.0000000E+00  0.0000000E+00  0.1111111E-01
    1      -22.277057   1.000000
    2      -17.051580   1.000000
    3      -15.954726   1.000000
    4      -10.372060   1.000000
    5       -9.163659   1.000000
    6       -5.776477   1.000000
    7       -5.773880   1.000000
    8       -5.108546   1.000000
    9       -1.044969   0.000000
   10        0.519982   0.000000
   11        1.309607   0.000000
   12        1.643794   0.000000
   13        2.571457   0.000000
   14        3.011729   0.000000
   15        4.635244   0.000000
   16        4.698688   0.000000
   17        5.314340   0.000000
   18        5.615840   0.000000
   19        5.633342   0.000000
   20        7.643588   0.000000
   21        8.192773   0.000000
   22        8.445704   0.000000
   23        8.729021   0.000000
   24        8.744046   0.000000
   25        9.052138   0.000000
   26        9.595482   0.000000
   27        9.611634   0.000000
   28        9.803121   0.000000
   29       10.161880   0.000000
   30       10.376861   0.000000
   31       10.861845   0.000000
   32       10.934008   0.000000

  0.3448276E-01  0.0000000E+00  0.0000000E+00  0.1111111E-01
    1      -22.271773   1.000000
    2      -17.139253   1.000000
    3      -15.859276   1.000000
    4      -10.365710   1.000000
    5       -9.158469   1.000000
    6       -5.797936   1.000000
    7       -5.785533   1.000000
    8       -5.143224   1.000000
    9       -1.002150   0.000000
   10        0.527151   0.000000
   11        1.316877   0.000000
   12        1.651141   0.000000
   13        2.578743   0.000000
   14        3.018992   0.000000
   15        4.637911   0.000000
   16        4.705911   0.000000
   17        5.321014   0.000000
   18        5.638940   0.000000
   19        5.639655   0.000000
   20        7.650696   0.000000
   21        7.938236   0.000000
   22        8.453019   0.000000
   23        8.711604   0.000000
   24        8.801507   0.000000
   25        9.007665   0.000000
   26        9.320072   0.000000
   27        9.812639   0.000000
   28        9.844996   0.000000
   29       10.145144   0.000000
   30       10.451883   0.000000
   31       10.593072   0.000000
   32       11.191392   0.000000

  0.5172414E-01  0.0000000E+00  0.0000000E+00  0.1111111E-01
    1      -22.262968   1.000000
    2      -17.261414   1.000000
    3      -15.724050   1.000000
    4      -10.355148   1.000000
    5       -9.149678   1.000000
    6       -5.834123   1.000000
    7       -5.804630   1.000000
    8       -5.199206   1.000000
    9       -0.932206   0.000000
   10        0.539098   0.000000
   11        1.328990   0.000000
   12        1.663385   0.000000
   13        2.590884   0.000000
   14        3.031097   0.000000
   15        4.642231   0.000000
   16        4.717944   0.000000
   17        5.332141   0.000000
   18        5.645482   0.000000
   19        5.678943   0.000000
   20        7.662531   0.000000
   21        7.683950   0.000000
   22        8.465199   0.000000
   23        8.547784   0.000000
   24        8.681735   0.000000
   25        9.046414   0.000000
   26        9.280563   0.000000
   27        9.817538   0.000000
   28        9.828582   0.000000
   29       10.179007   0.000000
   30       10.327584   0.000000
   31       10.747689   0.000000
   32       11.410070   0.000000

  0.6896552E-01  0.0000000E+00  0.0000000E+00  0.1111111E-01
    1      -22.250642   1.000000
    2      -17.402541   1.000000
    3      -15.564697   1.000000
    4      -10.340422   1.000000
    5       -9.137421   1.000000
    6       -5.884873   1.000000
    7       -5.831545   1.000000
    8       -5.274574   1.000000
    9       -0.837718   0.000000
   10        0.555816   0.000000
   11        1.345937   0.000000
   12        1.680527   0.000000
   13        2.607871   0.000000
   14        3.048040   0.000000
   15        4.648314   0.000000
   16        4.734772   0.000000
   17        5.347631   0.000000
   18        5.651702   0.000000
   19        5.732344   0.000000
   20        7.432565   0.000000
   21        7.679069   0.000000
   22        8.295741   0.000000
   23        8.482237   0.000000
   24        8.638310   0.000000
   25        8.780933   0.000000
   26        9.552533   0.000000
   27        9.580032   0.000000
   28        9.851081   0.000000
   29       10.067902   0.000000
   30       10.423651   0.000000
   31       11.047470   0.000000
   32       11.421338   0.000000

  0.8620690E-01  0.0000000E+00  0.0000000E+00  0.1111111E-01
    1      -22.234796   1.000000
    2      -17.553570   1.000000
    3      -15.390250   1.000000
    4      -10.321488   1.000000
    5       -9.121706   1.000000
    6       -5.949463   1.000000
    7       -5.865661   1.000000
    8       -5.366616   1.000000
    9       -0.721156   0.000000
   10        0.577321   0.000000
   11        1.367727   0.000000
   12        1.702568   0.000000
   13        2.629713   0.000000
   14        3.069829   0.000000
   15        4.655966   0.000000
   16        4.756409   0.000000
   17        5.367491   0.000000
   18        5.660923   0.000000
   19        5.801208   0.000000
   20        7.184805   0.000000
   21        7.700331   0.000000
   22        8.046606   0.000000
   23        8.504137   0.000000
   24        8.519499   0.000000
   25        8.582826   0.000000
   26        9.332130   0.000000
   27        9.784183   0.000000
   28        9.855914   0.000000
   29        9.880330   0.000000
   30       10.668235   0.000000
   31       11.336884   0.000000
   32       11.352023   0.000000

  0.1034483E+00  0.0000000E+00  0.0000000E+00  0.1111111E-01
    1      -22.215433   1.000000
    2      -17.709478   1.000000
    3      -15.205707   1.000000
    4      -10.298385   1.000000
    5       -9.102492   1.000000
    6       -6.027642   1.000000
    7       -5.906744   1.000000
    8       -5.472764   1.000000
    9       -0.584902   0.000000
   10        0.603599   0.000000
   11        1.394351   0.000000
   12        1.729506   0.000000
   13        2.656402   0.000000
   14        3.096458   0.000000
   15        4.665455   0.000000
   16        4.782842   0.000000
   17        5.391504   0.000000
   18        5.670035   0.000000
   19        5.884200   0.000000
   20        6.941027   0.000000
   21        7.726293   0.000000
   22        7.800960   0.000000
   23        8.262817   0.000000
   24        8.514534   0.000000
   25        8.530881   0.000000
   26        9.085535   0.000000
   27        9.555026   0.000000
   28        9.916415   0.000000
   29       10.110979   0.000000
   30       10.836278   0.000000
   31       11.222206   0.000000
   32       11.467168   0.000000

  0.1206897E+00  0.0000000E+00  0.0000000E+00  0.1111111E-01
    1      -22.192550   1.000000
    2      -17.867423   1.000000
    3      -15.013765   1.000000
    4      -10.270846   1.000000
    5       -9.079652   1.000000
    6       -6.118624   1.000000
    7       -5.954396   1.000000
    8       -5.589668   1.000000
    9       -0.431007   0.000000
   10        0.634665   0.000000
   11        1.425856   0.000000
   12        1.761344   0.000000
   13        2.687977   0.000000
   14        3.127936   0.000000
   15        4.677117   0.000000
   16        4.814139   0.000000
   17        5.419596   0.000000
   18        5.681641   0.000000
   19        5.981011   0.000000
   20        6.701487   0.000000
   21        7.559211   0.000000
   22        7.757069   0.000000
   23        8.010967   0.000000
   24        8.435631   0.000000
   25        8.562467   0.000000
   26        8.842205   0.000000
   27        9.308623   0.000000
   28        9.959770   0.000000
   29       10.388845   0.000000
   30       10.761674   0.000000
   31       11.343581   0.000000
   32       11.508269   0.000000

  0.1379310E+00  0.0000000E+00  0.0000000E+00  0.1111111E-01
    1      -22.166156   1.000000
    2      -18.025842   1.000000
    3      -14.816426   1.000000
    4      -10.239278   1.000000
    5       -9.053601   1.000000
    6       -6.221976   1.000000
    7       -6.008177   1.000000
    8       -5.717118   1.000000
    9       -0.263245   0.000000
   10        0.670512   0.000000
   11        1.462173   0.000000
   12        1.798080   0.000000
   13        2.724381   0.000000
   14        3.164257   0.000000
   15        4.689786   0.000000
   16        4.850198   0.000000
   17        5.451377   0.000000
   18        5.694324   0.000000
   19        6.093715   0.000000
   20        6.466214   0.000000
   21        7.321195   0.000000
   22        7.763958   0.000000
   23        7.792471   0.000000
   24        8.345489   0.000000
   25        8.598881   0.000000
   26        8.602512   0.000000
   27        9.066095   0.000000
   28       10.010513   0.000000
   29       10.569927   0.000000
   30       10.666455   0.000000
   31       11.301828   0.000000
   32       11.531152   0.000000

  0.1551724E+00  0.0000000E+00  0.0000000E+00  0.1111111E-01
    1      -22.136253   1.000000
    2      -18.183632   1.000000
    3      -14.614628   1.000000
    4      -10.203611   1.000000
    5       -9.024110   1.000000
    6       -6.337174   1.000000
    7       -6.067741   1.000000
    8       -5.851564   1.000000
    9       -0.082804   0.000000
   10        0.711132   0.000000
   11        1.503311   0.000000
   12        1.839713   0.000000
   13        2.765621   0.000000
   14        3.205416   0.000000
   15        4.703989   0.000000
   16        4.891032   0.000000
   17        5.486027   0.000000
   18        5.706386   0.000000
   19        6.218085   0.000000
   20        6.235487   0.000000
   21        7.087364   0.000000
   22        7.521813   0.000000
   23        7.832488   0.000000
   24        8.244471   0.000000
   25        8.366961   0.000000
   26        8.640101   0.000000
   27        8.828027   0.000000
   28       10.068796   0.000000
   29       10.358455   0.000000
   30       10.935198   0.000000
   31       11.077425   0.000000
   32       11.569620   0.000000

  0.1724138E+00  0.0000000E+00  0.0000000E+00  0.1111111E-01
    1      -22.102841   1.000000
    2      -18.340173   1.000000
    3      -14.409088   1.000000
    4      -10.163753   1.000000
    5       -8.991213   1.000000
    6       -6.463949   1.000000
    7       -6.132561   1.000000
    8       -5.991475   1.000000
    9        0.108133   0.000000
   10        0.756542   0.000000
   11        1.549286   0.000000
   12        1.886246   0.000000
   13        2.811709   0.000000
   14        3.251425   0.000000
   15        4.719269   0.000000
   16        4.936661   0.000000
   17        5.522698   0.000000
   18        5.721079   0.000000
   19        6.009474   0.000000
   20        6.355762   0.000000
   21        6.857750   0.000000
   22        7.284535   0.000000
   23        7.877007   0.000000
   24        8.132547   0.000000
   25        8.135668   0.000000
   26        8.594515   0.000000
   27        8.686121   0.000000
   28       10.134550   0.000000
   29       10.143409   0.000000
   30       10.832854   0.000000
   31       11.225663   0.000000
   32       11.612781   0.000000

  0.1896552E+00  0.0000000E+00  0.0000000E+00  0.1111111E-01
    1      -22.065928   1.000000
    2      -18.494979   1.000000
    3      -14.200431   1.000000
    4      -10.119691   1.000000
    5       -8.955238   1.000000
    6       -6.600687   1.000000
    7       -6.201794   1.000000
    8       -6.136128   1.000000
    9        0.307896   0.000000
   10        0.806732   0.000000
   11        1.600101   0.000000
   12        1.937678   0.000000
   13        2.862650   0.000000
   14        3.302277   0.000000
   15        4.735355   0.000000
   16        4.987090   0.000000
   17        5.559383   0.000000
   18        5.739602   0.000000
   19        5.788579   0.000000
   20        6.506577   0.000000
   21        6.632327   0.000000
   22        7.052135   0.000000
   23        7.908659   0.000000
   24        7.924890   0.000000
   25        8.013365   0.000000
   26        8.365637   0.000000
   27        8.736925   0.000000
   28        9.928790   0.000000
   29       10.208305   0.000000
   30       10.610038   0.000000
   31       11.494003   0.000000
   32       11.660453   0.000000

  0.2068966E+00  0.0000000E+00  0.0000000E+00  0.1111111E-01
    1      -22.025516   1.000000
    2      -18.647708   1.000000
    3      -13.988895   1.000000
    4      -10.071646   1.000000
    5       -8.915626   1.000000
    6       -6.747376   1.000000
    7       -6.283053   1.000000
    8       -6.276236   1.000000
    9        0.515782   0.000000
   10        0.861699   0.000000
   11        1.655714   0.000000
   12        1.994007   0.000000
   13        2.918407   0.000000
   14        3.357968   0.000000
   15        4.751305   0.000000
   16        5.042249   0.000000
   17        5.573555   0.000000
   18        5.592051   0.000000
   19        5.763218   0.000000
   20        6.411435   0.000000
   21        6.668206   0.000000
   22        6.824627   0.000000
   23        7.686201   0.000000
   24        7.874446   0.000000
   25        7.983743   0.000000
   26        8.141456   0.000000
   27        8.792492   0.000000
   28        9.716542   0.000000
   29       10.289243   0.000000
   30       10.390086   0.000000
   31       11.712430   0.000000
   32       11.757001   0.000000

  0.2241379E+00  0.0000000E+00  0.0000000E+00  0.1111111E-01
    1      -21.981611   1.000000
    2      -18.798103   1.000000
    3      -13.774692   1.000000
    4      -10.019364   1.000000
    5       -8.872698   1.000000
    6       -6.902881   1.000000
    7       -6.431696   1.000000
    8       -6.354069   1.000000
    9        0.730198   0.000000
   10        0.921438   0.000000
   11        1.716170   0.000000
   12        2.055235   0.000000
   13        2.979019   0.000000
   14        3.418494   0.000000
   15        4.766305   0.000000
   16        5.102206   0.000000
   17        5.366046   0.000000
   18        5.616953   0.000000
   19        5.797252   0.000000
   20        6.194968   0.000000
   21        6.602018   0.000000
   22        6.840876   0.000000
   23        7.468229   0.000000
   24        7.735411   0.000000
   25        7.922002   0.000000
   26        8.041385   0.000000
   27        8.852809   0.000000
   28        9.507196   0.000000
   29       10.174294   0.000000
   30       10.378497   0.000000
   31       11.768945   0.000000
   32       12.012573   0.000000

  0.2413793E+00  0.0000000E+00  0.0000000E+00  0.1111111E-01
    1      -21.934216   1.000000
    2      -18.945994   1.000000
    3      -13.558197   1.000000
    4       -9.962993   1.000000
    5       -8.826474   1.000000
    6       -7.067186   1.000000
    7       -6.581186   1.000000
    8       -6.435263   1.000000
    9        0.950291   0.000000
   10        0.985964   0.000000
   11        1.781443   0.000000
   12        2.121362   0.000000
   13        3.044462   0.000000
   14        3.483863   0.000000
   15        4.774619   0.000000
   16        5.166912   0.000000
   17        5.171201   0.000000
   18        5.632100   0.000000
   19        5.843341   0.000000
   20        5.983058   0.000000
   21        6.384325   0.000000
   22        7.024781   0.000000
   23        7.254847   0.000000
   24        7.585536   0.000000
   25        7.707307   0.000000
   26        8.104707   0.000000
   27        8.917871   0.000000
   28        9.301317   0.000000
   29        9.962917   0.000000
   30       10.475179   0.000000
   31       11.829781   0.000000
   32       11.979556   0.000000

  0.2586207E+00  0.0000000E+00  0.0000000E+00  0.1111111E-01
    1      -21.883338   1.000000
    2      -19.091270   1.000000
    3      -13.339625   1.000000
    4       -9.902526   1.000000
    5       -8.777145   1.000000
    6       -7.239325   1.000000
    7       -6.731037   1.000000
    8       -6.519379   1.000000
    9        1.055267   0.000000
   10        1.174966   0.000000
   11        1.851529   0.000000
   12        2.192387   0.000000
   13        3.114733   0.000000
   14        3.554066   0.000000
   15        4.755381   0.000000
   16        5.009642   0.000000
   17        5.236351   0.000000
   18        5.638078   0.000000
   19        5.775695   0.000000
   20        5.900459   0.000000
   21        6.171564   0.000000
   22        7.046042   0.000000
   23        7.218912   0.000000
   24        7.427034   0.000000
   25        7.497374   0.000000
   26        8.172870   0.000000
   27        8.987664   0.000000
   28        9.099091   0.000000
   29        9.756001   0.000000
   30       10.579155   0.000000
   31       11.819790   0.000000
   32       11.894987   0.000000

  0.2758621E+00  0.0000000E+00  0.0000000E+00  0.1111111E-01
    1      -21.828990   1.000000
    2      -19.233816   1.000000
    3      -13.119217   1.000000
    4       -9.837943   1.000000
    5       -8.724744   1.000000
    6       -7.419081   1.000000
    7       -6.880676   1.000000
    8       -6.605878   1.000000
    9        1.129332   0.000000
   10        1.403272   0.000000
   11        1.926430   0.000000
   12        2.268309   0.000000
   13        3.189833   0.000000
   14        3.629089   0.000000
   15        4.655891   0.000000
   16        4.934111   0.000000
   17        5.310504   0.000000
   18        5.572918   0.000000
   19        5.636143   0.000000
   20        5.963769   0.000000
   21        5.966567   0.000000
   22        6.841835   0.000000
   23        7.261316   0.000000
   24        7.292218   0.000000
   25        7.425630   0.000000
   26        8.245758   0.000000
   27        8.900693   0.000000
   28        9.062172   0.000000
   29        9.553587   0.000000
   30       10.688235   0.000000
   31       11.651915   0.000000
   32       11.964519   0.000000

  0.2931034E+00  0.0000000E+00  0.0000000E+00  0.1111111E-01
    1      -21.771174   1.000000
    2      -19.373530   1.000000
    3      -12.897191   1.000000
    4       -9.769335   1.000000
    5       -8.669299   1.000000
    6       -7.605379   1.000000
    7       -7.029552   1.000000
    8       -6.694657   1.000000
    9        1.208158   0.000000
   10        1.634975   0.000000
   11        2.006124   0.000000
   12        2.349128   0.000000
   13        3.269742   0.000000
   14        3.708926   0.000000
   15        4.491829   0.000000
   16        4.928760   0.000000
   17        5.374868   0.000000
   18        5.389301   0.000000
   19        5.628647   0.000000
   20        5.761010   0.000000
   21        6.040158   0.000000
   22        6.642311   0.000000
   23        7.087167   0.000000
   24        7.091883   0.000000
   25        7.638159   0.000000
   26        8.323314   0.000000
   27        8.706374   0.000000
   28        9.141386   0.000000
   29        9.355756   0.000000
   30       10.804660   0.000000
   31       11.481227   0.000000
   32       12.038299   0.000000

  0.3103448E+00  0.0000000E+00  0.0000000E+00  0.1111111E-01
    1      -21.709887   1.000000
    2      -19.510328   1.000000
    3      -12.673513   1.000000
    4       -9.696598   1.000000
    5       -8.610761   1.000000
    6       -7.797271   1.000000
    7       -7.177019   1.000000
    8       -6.784910   1.000000
    9        1.291772   0.000000
   10        1.869561   0.000000
   11        2.090627   0.000000
   12        2.434846   0.000000
   13        3.354470   0.000000
   14        3.793591   0.000000
   15        4.312033   0.000000
   16        4.944806   0.000000
   17        5.181615   0.000000
   18        5.472705   0.000000
   19        5.563451   0.000000
   20        5.617163   0.000000
   21        6.120169   0.000000
   22        6.447497   0.000000
   23        6.896403   0.000000
   24        6.907739   0.000000
   25        7.860017   0.000000
   26        8.405539   0.000000
   27        8.516240   0.000000
   28        9.162544   0.000000
   29        9.225326   0.000000
   30       10.927928   0.000000
   31       11.310199   0.000000
   32       12.116358   0.000000

  0.3275862E+00  0.0000000E+00  0.0000000E+00  0.1111111E-01
    1      -21.645152   1.000000
    2      -19.644157   1.000000
    3      -12.448542   1.000000
    4       -9.619969   1.000000
    5       -8.549289   1.000000
    6       -7.994914   1.000000
    7       -7.322870   1.000000
    8       -6.876521   1.000000
    9        1.380143   0.000000
   10        2.105978   0.000000
   11        2.179890   0.000000
   12        2.525460   0.000000
   13        3.443971   0.000000
   14        3.883053   0.000000
   15        4.130638   0.000000
   16        4.966603   0.000000
   17        4.993246   0.000000
   18        5.371588   0.000000
   19        5.560477   0.000000
   20        5.601568   0.000000
   21        6.206032   0.000000
   22        6.257413   0.000000
   23        6.705823   0.000000
   24        6.720171   0.000000
   25        8.089950   0.000000
   26        8.330368   0.000000
   27        8.492364   0.000000
   28        8.973995   0.000000
   29        9.313961   0.000000
   30       11.055597   0.000000
   31       11.140246   0.000000
   32       12.065615   0.000000

  0.3448276E+00  0.0000000E+00  0.0000000E+00  0.1111111E-01
    1      -21.576966   1.000000
    2      -19.774973   1.000000
    3      -12.222562   1.000000
    4       -9.539651   1.000000
    5       -8.485190   1.000000
    6       -8.197211   1.000000
    7       -7.466773   1.000000
    8       -6.968975   1.000000
    9        1.473283   0.000000
   10        2.273862   0.000000
   11        2.344172   0.000000
   12        2.620972   0.000000
   13        3.538196   0.000000
   14        3.951381   0.000000
   15        3.977306   0.000000
   16        4.809920   0.000000
   17        4.989005   0.000000
   18        5.188012   0.000000
   19        5.582820   0.000000
   20        5.652173   0.000000
   21        6.072090   0.000000
   22        6.297402   0.000000
   23        6.520172   0.000000
   24        6.527139   0.000000
   25        8.148824   0.000000
   26        8.327529   0.000000
   27        8.583650   0.000000
   28        8.790080   0.000000
   29        9.407306   0.000000
   30       10.972241   0.000000
   31       11.189149   0.000000
   32       11.884860   0.000000

  0.3620690E+00  0.0000000E+00  0.0000000E+00  0.1111111E-01
    1      -21.505353   1.000000
    2      -19.902700   1.000000
    3      -11.995382   1.000000
    4       -9.455107   1.000000
    5       -8.417986   1.000000
    6       -8.404219   1.000000
    7       -7.608462   1.000000
    8       -7.062071   1.000000
    9        1.571146   0.000000
   10        2.372626   0.000000
   11        2.582565   0.000000
   12        2.721374   0.000000
   13        3.637202   0.000000
   14        3.775578   0.000000
   15        4.076295   0.000000
   16        4.631901   0.000000
   17        4.966108   0.000000
   18        5.056875   0.000000
   19        5.560324   0.000000
   20        5.746734   0.000000
   21        5.891576   0.000000
   22        6.330218   0.000000
   23        6.339551   0.000000
   24        6.394078   0.000000
   25        7.971692   0.000000
   26        8.573358   0.000000
   27        8.610876   0.000000
   28        8.679652   0.000000
   29        9.505328   0.000000
   30       10.806826   0.000000
   31       11.325668   0.000000
   32       11.708390   0.000000

  0.3793103E+00  0.0000000E+00  0.0000000E+00  0.1111111E-01
    1      -21.430308   1.000000
    2      -20.027336   1.000000
    3      -11.767452   1.000000
    4       -9.366658   1.000000
    5       -8.615101   1.000000
    6       -8.348140   1.000000
    7       -7.747814   1.000000
    8       -7.155543   1.000000
    9        1.673786   0.000000
   10        2.476111   0.000000
   11        2.820606   0.000000
   12        2.826675   0.000000
   13        3.603661   0.000000
   14        3.740907   0.000000
   15        4.180039   0.000000
   16        4.459648   0.000000
   17        4.809000   0.000000
   18        5.065458   0.000000
   19        5.536263   0.000000
   20        5.715901   0.000000
   21        5.837804   0.000000
   22        6.136318   0.000000
   23        6.164071   0.000000
   24        6.495902   0.000000
   25        7.798987   0.000000
   26        8.436349   0.000000
   27        8.780225   0.000000
   28        8.824301   0.000000
   29        9.608067   0.000000
   30       10.644342   0.000000
   31       11.466280   0.000000
   32       11.536242   0.000000

  0.3965517E+00  0.0000000E+00  0.0000000E+00  0.1111111E-01
    1      -21.351847   1.000000
    2      -20.148805   1.000000
    3      -11.538561   1.000000
    4       -9.274259   1.000000
    5       -8.829634   1.000000
    6       -8.275502   1.000000
    7       -7.884438   1.000000
    8       -7.248680   1.000000
    9        1.781169   0.000000
   10        2.584277   0.000000
   11        2.936869   0.000000
   12        3.058096   0.000000
   13        3.436019   0.000000
   14        3.849229   0.000000
   15        4.288471   0.000000
   16        4.294262   0.000000
   17        4.638339   0.000000
   18        5.093555   0.000000
   19        5.511190   0.000000
   20        5.545155   0.000000
   21        5.848762   0.000000
   22        5.993976   0.000000
   23        6.022602   0.000000
   24        6.602798   0.000000
   25        7.630791   0.000000
   26        8.266565   0.000000
   27        8.885410   0.000000
   28        9.081690   0.000000
   29        9.715492   0.000000
   30       10.485172   0.000000
   31       11.368612   0.000000
   32       11.608634   0.000000

  0.4137931E+00  0.0000000E+00  0.0000000E+00  0.1111111E-01
    1      -21.269979   1.000000
    2      -20.267109   1.000000
    3      -11.309553   1.000000
    4       -9.178194   1.000000
    5       -9.046938   1.000000
    6       -8.200527   1.000000
    7       -8.018352   1.000000
    8       -7.341716   1.000000
    9        1.893289   0.000000
   10        2.697048   0.000000
   11        3.051955   0.000000
   12        3.272736   0.000000
   13        3.288882   0.000000
   14        3.962027   0.000000
   15        4.138687   0.000000
   16        4.401502   0.000000
   17        4.470569   0.000000
   18        5.123379   0.000000
   19        5.379440   0.000000
   20        5.483035   0.000000
   21        5.671660   0.000000
   22        5.829711   0.000000
   23        6.097250   0.000000
   24        6.714681   0.000000
   25        7.467127   0.000000
   26        8.101495   0.000000
   27        8.994980   0.000000
   28        9.343864   0.000000
   29        9.827618   0.000000
   30       10.329512   0.000000
   31       11.205445   0.000000
   32       11.754335   0.000000

  0.4310345E+00  0.0000000E+00  0.0000000E+00  0.1111111E-01
    1      -21.184717   1.000000
    2      -20.382204   1.000000
    3      -11.080316   1.000000
    4       -9.266884   1.000000
    5       -9.078261   1.000000
    6       -8.149318   1.000000
    7       -8.123148   1.000000
    8       -7.433900   1.000000
    9        2.010142   0.000000
   10        2.814379   0.000000
   11        3.113939   0.000000
   12        3.171931   0.000000
   13        3.502022   0.000000
   14        4.004621   0.000000
   15        4.079066   0.000000
   16        4.307113   0.000000
   17        4.519009   0.000000
   18        5.152339   0.000000
   19        5.218973   0.000000
   20        5.453606   0.000000
   21        5.460121   0.000000
   22        5.672375   0.000000
   23        6.207576   0.000000
   24        6.831515   0.000000
   25        7.308043   0.000000
   26        7.941178   0.000000
   27        9.109076   0.000000
   28        9.613172   0.000000
   29        9.944425   0.000000
   30       10.177566   0.000000
   31       11.046831   0.000000
   32       11.903310   0.000000

  0.4482759E+00  0.0000000E+00  0.0000000E+00  0.1111111E-01
    1      -21.096080   1.000000
    2      -20.494063   1.000000
    3      -10.851067   1.000000
    4       -9.489185   1.000000
    5       -8.974643   1.000000
    6       -8.277204   1.000000
    7       -8.043487   1.000000
    8       -7.525397   1.000000
    9        2.131700   0.000000
   10        2.936114   0.000000
   11        2.959695   0.000000
   12        3.296793   0.000000
   13        3.631672   0.000000
   14        3.957073   0.000000
   15        4.148305   0.000000
   16        4.199707   0.000000
   17        4.640726   0.000000
   18        5.064209   0.000000
   19        5.176659   0.000000
   20        5.241394   0.000000