       N       E                     dE             d eps       ncg     rms          rms(c)
DAV:   1     0.702603418120E+02    0.70260E+02   -0.37189E+03  5784   0.274E+02
DAV:   2    -0.256153910937E+02   -0.95876E+02   -0.76025E+02  8000   0.853E+01
DAV:   3    -0.355112190747E+02   -0.98958E+01   -0.97800E+01  7672   0.276E+01
DAV:   4    -0.356325464918E+02   -0.12133E+00   -0.12117E+00  6872   0.393E+00
DAV:   5    -0.356347591473E+02   -0.22127E-02   -0.22122E-02  7472   0.487E-01
DAV:   6    -0.356348218384E+02   -0.62691E-04   -0.62691E-04  7448   0.714E-02
DAV:   7    -0.356348232965E+02   -0.14581E-05   -0.14581E-05  7880   0.893E-03
DAV:   8    -0.356348233681E+02   -0.71531E-07   -0.71519E-07  6280   0.171E-03
   1 F= -.35634823E+02 E0= -.35634823E+02  d E =-.385494E-13
