 vasp.5.4.4.18Apr17-6-g9f103f2a35 (build May 21 2018 15:16:00) complex           
 executed on GUN_wannier90_optcel date 2019.03.25  10:14:30
 running on    2 total cores
 distrk:  each k-point on    2 cores,    1 groups
 distr:  one band on NCORES_PER_BAND=   1 cores,    2 groups


--------------------------------------------------------------------------------------------------------


 INCAR:
 POTCAR:    PAW_PBE C 08Apr2002                   
 POTCAR:    PAW_PBE C 08Apr2002                   
  local pseudopotential read in
  partial core-charges read in
  partial kinetic energy density read in
  atomic valenz-charges read in
  non local Contribution for L=           0  read in
    real space projection operators read in
  non local Contribution for L=           0  read in
    real space projection operators read in
  non local Contribution for L=           1  read in
    real space projection operators read in
  non local Contribution for L=           1  read in
    real space projection operators read in
    PAW grid and wavefunctions read in

   number of l-projection  operators is LMAX  =           4
   number of lm-projection operators is LMMAX =           8

  PAW_PBE C 08Apr2002                   :
 energy of atom  1       EATOM= -147.1560
 kinetic energy error for atom=    0.0288 (will be added to EATOM!!)


 POSCAR: graphene d=a0                           
  positions in direct lattice
  velocities in cartesian coordinates
 exchange correlation table for  LEXCH =        8
   RHO(1)=    0.500       N(1)  =     2000
   RHO(2)=  100.500       N(2)  =     4000



--------------------------------------------------------------------------------------------------------


 ion  position               nearest neighbor table
   1  0.333  0.000  0.500-   2 1.42   3 1.42   3 1.42
   2  0.667  0.000  0.500-   1 1.42   4 1.42   4 1.42
   3  0.167  0.500  0.500-   4 1.42   1 1.42   1 1.42
   4  0.833  0.500  0.500-   3 1.42   2 1.42   2 1.42

  LATTYP: Found a simple orthorhombic cell.
 ALAT       =     2.4651886975
 B/A-ratio  =     1.7305857395
 C/A-ratio  =     8.1129692100
  
  Lattice vectors:
  
 A1 = (   0.0000000000,  -2.4651886975,   0.0000000000)
 A2 = (  -4.2662204051,   0.0000000000,   0.0000000000)
 A3 = (   0.0000000000,   0.0000000000, -20.0000000000)


Analysis of symmetry for initial positions (statically):
=====================================================================
 Subroutine PRICEL returns following result:
 
  LATTYP: Found a base centered orthorhombic cell.
 ALAT       =     2.4651886975
 B/A-ratio  =     1.7305857390
 C/A-ratio  =     8.1129692100
  
  Lattice vectors:
  
 A1 = (   2.1331102020,  -1.2325943488,   0.0000000000)
 A2 = (  -2.1331102020,  -1.2325943488,   0.0000000000)
 A3 = (   0.0000000000,   0.0000000000, -20.0000000000)
 
   2 primitive cells build up your supercell.
 

 Routine SETGRP: Setting up the symmetry group for a 
 simple orthorhombic supercell.


 Subroutine GETGRP returns: Found  8 space group operations
 (whereof  8 operations were pure point group operations)
 out of a pool of  8 trial point group operations.


The static configuration has the point symmetry D_2h.


Analysis of symmetry for dynamics (positions and initial velocities):
=====================================================================
 Subroutine PRICEL returns following result:
 
  LATTYP: Found a base centered orthorhombic cell.
 ALAT       =     2.4651886975
 B/A-ratio  =     1.7305857390
 C/A-ratio  =     8.1129692100
  
  Lattice vectors:
  
 A1 = (   2.1331102020,  -1.2325943488,   0.0000000000)
 A2 = (  -2.1331102020,  -1.2325943488,   0.0000000000)
 A3 = (   0.0000000000,   0.0000000000, -20.0000000000)
 
   2 primitive cells build up your supercell.
 

 Routine SETGRP: Setting up the symmetry group for a 
 simple orthorhombic supercell.


 Subroutine GETGRP returns: Found  8 space group operations
 (whereof  8 operations were pure point group operations)
 out of a pool of  8 trial point group operations.


The dynamic configuration has the point symmetry D_2h.


 Subroutine INISYM returns: Found  8 space group operations
 (whereof  8 operations are pure point group operations),
 and found     2 'primitive' translations



 KPOINTS: K-point                                 
  interpolating k-points between supplied coordinates
  k-points in reciprocal lattice
Space group operators:
 irot       det(A)        alpha          n_x          n_y          n_z        tau_x        tau_y        tau_z
    1     1.000000     0.000000     1.000000     0.000000     0.000000     0.000000    -0.000000    -0.000000
    2    -1.000000     0.000000     1.000000     0.000000     0.000000     0.000000    -0.000000    -0.000000
    3     1.000000   180.000000     0.000000     0.000000     1.000000     0.000000    -0.000000    -0.000000
    4    -1.000000   180.000000     0.000000     0.000000     1.000000     0.000000    -0.000000    -0.000000
    5     1.000000   179.999999     1.000000     0.000000     0.000000     0.000000    -0.000000    -0.000000
    6    -1.000000   179.999999     1.000000     0.000000     0.000000     0.000000    -0.000000    -0.000000
    7     1.000000   180.000000     0.000000     1.000000     0.000000     0.000000    -0.000000    -0.000000
    8    -1.000000   180.000000     0.000000     1.000000     0.000000     0.000000    -0.000000    -0.000000


--------------------------------------------------------------------------------------------------------




 Dimension of arrays:
   k-points           NKPTS =     90   k-points in BZ     NKDIM =     90   number of bands    NBANDS=     32
   number of dos      NEDOS =   3000   number of ions     NIONS =      4
   non local maximal  LDIM  =      4   non local SUM 2l+1 LMDIM =      8
   total plane-waves  NPLWV =  62720
   max r-space proj   IRMAX =      1   max aug-charges    IRDMAX=   3718
   dimension x,y,z NGX =    28 NGY =   16 NGZ =  140
   dimension x,y,z NGXF=    56 NGYF=   32 NGZF=  280
   support grid    NGXF=    56 NGYF=   32 NGZF=  280
   ions per type =               4
   NGX,Y,Z   is equivalent  to a cutoff of  10.91, 10.79, 11.64 a.u.
   NGXF,Y,Z  is equivalent  to a cutoff of  21.82, 21.58, 23.27 a.u.

 SYSTEM =  C                                       
 POSCAR =  graphene d=a0                           

 Startparameter for this run:
   NWRITE =      1    write-flag & timer
   PREC   = a         normal or accurate (medium, high low for compatibility)
   ISTART =      0    job   : 0-new  1-cont  2-samecut
   ICHARG =     11    charge: 1-file 2-atom 10-const
   ISPIN  =      1    spin polarized calculation?
   LNONCOLLINEAR =      F non collinear calculations
   LSORBIT =      F    spin-orbit coupling
   INIWAV =      1    electr: 0-lowe 1-rand  2-diag
   LASPH  =      F    aspherical Exc in radial PAW
   METAGGA=      F    non-selfconsistent MetaGGA calc.

 Electronic Relaxation 1
   ENCUT  =  400.0 eV  29.40 Ry    5.42 a.u.   6.96  4.02 32.61*2*pi/ulx,y,z
   ENINI  =  400.0     initial cutoff
   ENAUG  =  644.9 eV  augmentation charge cutoff
   NELM   =   2000;   NELMIN=  5; NELMDL= -5     # of ELM steps 
   EDIFF  = 0.1E-05   stopping-criterion for ELM
   LREAL  =      F    real-space projection
   NLSPLINE    = F    spline interpolate recip. space projectors
   LCOMPAT=      F    compatible to vasp.4.4
   GGA_COMPAT  = T    GGA compatible to vasp.4.4-vasp.4.6
   LMAXPAW     = -100 max onsite density
   LMAXMIX     =    2 max onsite mixed and CHGCAR
   VOSKOWN=      0    Vosko Wilk Nusair interpolation
   ROPT   =    0.00000
 Ionic relaxation
   EDIFFG = -.1E-01   stopping-criterion for IOM
   NSW    =      0    number of steps for IOM
   NBLOCK =      1;   KBLOCK =      1    inner block; outer block 
   IBRION =     -1    ionic relax: 0-MD 1-quasi-New 2-CG
   NFREE  =      0    steps in history (QN), initial steepest desc. (CG)
   ISIF   =      2    stress and relaxation
   IWAVPR =     10    prediction:  0-non 1-charg 2-wave 3-comb
   ISYM   =      2    0-nonsym 1-usesym 2-fastsym
   LCORR  =      T    Harris-Foulkes like correction to forces

   POTIM  = 0.5000    time-step for ionic-motion
   TEIN   =    0.0    initial temperature
   TEBEG  =    0.0;   TEEND  =   0.0 temperature during run
   SMASS  =  -3.00    Nose mass-parameter (am)
   estimated Nose-frequenzy (Omega)   =  0.10E-29 period in steps =****** mass=  -0.416E-27a.u.
   SCALEE = 1.0000    scale energy and forces
   NPACO  =    256;   APACO  = 16.0  distance and # of slots for P.C.
   PSTRESS=    0.0 pullay stress

  Mass of Ions in am
   POMASS =  12.01
  Ionic Valenz
   ZVAL   =   4.00
  Atomic Wigner-Seitz radii
   RWIGS  =  -1.00
  virtual crystal weights 
   VCA    =   1.00
   NELECT =      16.0000    total number of electrons
   NUPDOWN=      -1.0000    fix difference up-down

 DOS related values:
   EMIN   = -15.00;   EMAX   =  5.00  energy-range for DOS
   EFERMI =   0.00
   ISMEAR =     0;   SIGMA  =   0.01  broadening in eV -4-tet -1-fermi 0-gaus

 Electronic relaxation 2 (details)
   IALGO  =     38    algorithm
   LDIAG  =      T    sub-space diagonalisation (order eigenvalues)
   LSUBROT=      F    optimize rotation matrix (better conditioning)
   TURBO    =      0    0=normal 1=particle mesh
   IRESTART =      0    0=no restart 2=restart with 2 vectors
   NREBOOT  =      0    no. of reboots
   NMIN     =      0    reboot dimension
   EREF     =   0.00    reference energy to select bands
   IMIX   =      4    mixing-type and parameters
     AMIX     =   0.40;   BMIX     =  1.00
     AMIX_MAG =   1.60;   BMIX_MAG =  1.00
     AMIN     =   0.10
     WC   =   100.;   INIMIX=   1;  MIXPRE=   1;  MAXMIX= -45

 Intra band minimization:
   WEIMIN = 0.0000     energy-eigenvalue tresh-hold
   EBREAK =  0.78E-08  absolut break condition
   DEPER  =   0.30     relativ break condition  

   TIME   =   0.40     timestep for ELM

  volume/ion in A,a.u.               =      52.59       354.86
  Fermi-wavevector in a.u.,A,eV,Ry     =   0.693650  1.310808  6.546446  0.481150
  Thomas-Fermi vector in A             =   1.775923

 Write flags
   LWAVE        =      F    write WAVECAR
   LDOWNSAMPLE  =      F    k-point downsampling of WAVECAR
   LCHARG       =      F    write CHGCAR
   LVTOT        =      F    write LOCPOT, total local potential
   LVHAR        =      F    write LOCPOT, Hartree potential only
   LELF         =      F    write electronic localiz. function (ELF)
   LORBIT       =     11    0 simple, 1 ext, 2 COOP (PROOUT), +10 PAW based schemes


 Dipole corrections
   LMONO  =      F    monopole corrections only (constant potential shift)
   LDIPOL =      F    correct potential (dipole corrections)
   IDIPOL =      0    1-x, 2-y, 3-z, 4-all directions 
   EPSILON=  1.0000000 bulk dielectric constant

 Exchange correlation treatment:
   GGA     =    --    GGA type
   LEXCH   =     8    internal setting for exchange type
   VOSKOWN=      0    Vosko Wilk Nusair interpolation
   LHFCALC =     F    Hartree Fock is set to
   LHFONE  =     F    Hartree Fock one center treatment
   AEXX    =    0.0000 exact exchange contribution

 Linear response parameters
   LEPSILON=     F    determine dielectric tensor
   LRPA    =     F    only Hartree local field effects (RPA)
   LNABLA  =     F    use nabla operator in PAW spheres
   LVEL    =     F    velocity operator in full k-point grid
   LINTERFAST=   F  fast interpolation
   KINTER  =     0    interpolate to denser k-point grid
   CSHIFT  =0.1000    complex shift for real part using Kramers Kronig
   OMEGAMAX=  -1.0    maximum frequency
   DEG_THRESHOLD= 0.2000000E-02 threshold for treating states as degnerate
   RTIME   =   -0.100 relaxation time in fs
  (WPLASMAI=    0.000 imaginary part of plasma frequency in eV, 0.658/RTIME)
   DFIELD  = 0.0000000 0.0000000 0.0000000 field for delta impulse in time

 Orbital magnetization related:
   ORBITALMAG=     F  switch on orbital magnetization
   LCHIMAG   =     F  perturbation theory with respect to B field
   DQ        =  0.001000  dq finite difference perturbation B field
   LLRAUG    =     F  two centre corrections for induced B field



--------------------------------------------------------------------------------------------------------


 Static calculation
 charge density and potential remain constant during run
 non-spin polarized calculation
 Variant of blocked Davidson
 Davidson routine will perform the subspace rotation
 perform sub-space diagonalisation
    after iterative eigenvector-optimisation
 no mixing
 using additional bands           24
 reciprocal scheme for non local part
 use partial core corrections
 calculate Harris-corrections to forces   (improved forces if not selfconsistent)
 use gradient corrections 
 WARNING: stress and forces are not correct
  (second derivative of E(xc) not defined)
 use of overlap-Matrix (Vanderbilt PP)
 Gauss-broadening in eV      SIGMA  =   0.01


--------------------------------------------------------------------------------------------------------


  energy-cutoff  :      400.00
  volume of cell :      210.34
      direct lattice vectors                 reciprocal lattice vectors
     4.266220405  0.000000000  0.000000000     0.234399516  0.000000000  0.000000000
     0.000000000  2.465188698  0.000000000     0.000000000  0.405648461  0.000000000
     0.000000000  0.000000000 20.000000000     0.000000000  0.000000000  0.050000000

  length of vectors
     4.266220405  2.465188698 20.000000000     0.234399516  0.405648461  0.050000000



 k-points in units of 2pi/SCALE and weight: K-point                                 
   0.00000000  0.00000000  0.00000000       0.011
   0.00404137  0.00000000  0.00000000       0.011
   0.00808274  0.00000000  0.00000000       0.011
   0.01212411  0.00000000  0.00000000       0.011
   0.01616548  0.00000000  0.00000000       0.011
   0.02020685  0.00000000  0.00000000       0.011
   0.02424823  0.00000000  0.00000000       0.011
   0.02828960  0.00000000  0.00000000       0.011
   0.03233097  0.00000000  0.00000000       0.011
   0.03637234  0.00000000  0.00000000       0.011
   0.04041371  0.00000000  0.00000000       0.011
   0.04445508  0.00000000  0.00000000       0.011
   0.04849645  0.00000000  0.00000000       0.011
   0.05253782  0.00000000  0.00000000       0.011
   0.05657919  0.00000000  0.00000000       0.011
   0.06062056  0.00000000  0.00000000       0.011
   0.06466194  0.00000000  0.00000000       0.011
   0.06870331  0.00000000  0.00000000       0.011
   0.07274468  0.00000000  0.00000000       0.011
   0.07678605  0.00000000  0.00000000       0.011
   0.08082742  0.00000000  0.00000000       0.011
   0.08486879  0.00000000  0.00000000       0.011
   0.08891016  0.00000000  0.00000000       0.011
   0.09295153  0.00000000  0.00000000       0.011
   0.09699290  0.00000000  0.00000000       0.011
   0.10103427  0.00000000  0.00000000       0.011
   0.10507565  0.00000000  0.00000000       0.011
   0.10911702  0.00000000  0.00000000       0.011
   0.11315839  0.00000000  0.00000000       0.011
   0.11719976  0.00000000  0.00000000       0.011
   0.11719976  0.00000000  0.00000000       0.011
   0.11719976  0.00699394  0.00000000       0.011
   0.11719976  0.01398788  0.00000000       0.011
   0.11719976  0.02098182  0.00000000       0.011
   0.11719976  0.02797576  0.00000000       0.011
   0.11719976  0.03496969  0.00000000       0.011
   0.11719976  0.04196363  0.00000000       0.011
   0.11719976  0.04895757  0.00000000       0.011
   0.11719976  0.05595151  0.00000000       0.011
   0.11719976  0.06294545  0.00000000       0.011
   0.11719976  0.06993939  0.00000000       0.011
   0.11719976  0.07693333  0.00000000       0.011
   0.11719976  0.08392727  0.00000000       0.011
   0.11719976  0.09092121  0.00000000       0.011
   0.11719976  0.09791515  0.00000000       0.011
   0.11719976  0.10490908  0.00000000       0.011
   0.11719976  0.11190302  0.00000000       0.011
   0.11719976  0.11889696  0.00000000       0.011
   0.11719976  0.12589090  0.00000000       0.011
   0.11719976  0.13288484  0.00000000       0.011
   0.11719976  0.13987878  0.00000000       0.011
   0.11719976  0.14687272  0.00000000       0.011
   0.11719976  0.15386666  0.00000000       0.011
   0.11719976  0.16086060  0.00000000       0.011
   0.11719976  0.16785454  0.00000000       0.011
   0.11719976  0.17484847  0.00000000       0.011
   0.11719976  0.18184241  0.00000000       0.011
   0.11719976  0.18883635  0.00000000       0.011
   0.11719976  0.19583029  0.00000000       0.011
   0.11719976  0.20282423  0.00000000       0.011
   0.11719976  0.20282423  0.00000000       0.011
   0.11315839  0.19583029  0.00000000       0.011
   0.10911702  0.18883635  0.00000000       0.011
   0.10507565  0.18184241  0.00000000       0.011
   0.10103427  0.17484847  0.00000000       0.011
   0.09699290  0.16785454  0.00000000       0.011
   0.09295153  0.16086060  0.00000000       0.011
   0.08891016  0.15386666  0.00000000       0.011
   0.08486879  0.14687272  0.00000000       0.011
   0.08082742  0.13987878  0.00000000       0.011
   0.07678605  0.13288484  0.00000000       0.011
   0.07274468  0.12589090  0.00000000       0.011
   0.06870331  0.11889696  0.00000000       0.011
   0.06466194  0.11190302  0.00000000       0.011
   0.06062056  0.10490908  0.00000000       0.011
   0.05657919  0.09791515  0.00000000       0.011
   0.05253782  0.09092121  0.00000000       0.011
   0.04849645  0.08392727  0.00000000       0.011
   0.04445508  0.07693333  0.00000000       0.011
   0.04041371  0.06993939  0.00000000       0.011
   0.03637234  0.06294545  0.00000000       0.011
   0.03233097  0.05595151  0.00000000       0.011
   0.02828960  0.04895757  0.00000000       0.011
   0.02424823  0.04196363  0.00000000       0.011
   0.02020685  0.03496969  0.00000000       0.011
   0.01616548  0.02797576  0.00000000       0.011
   0.01212411  0.02098182  0.00000000       0.011
   0.00808274  0.01398788  0.00000000       0.011
   0.00404137  0.00699394  0.00000000       0.011
   0.00000000  0.00000000  0.00000000       0.011

 k-points in reciprocal lattice and weights: K-point                                 
   0.00000000  0.00000000  0.00000000       0.011
   0.01724138  0.00000000  0.00000000       0.011
   0.03448276  0.00000000  0.00000000       0.011
   0.05172414  0.00000000  0.00000000       0.011
   0.06896552  0.00000000  0.00000000       0.011
   0.08620690  0.00000000  0.00000000       0.011
   0.10344828  0.00000000  0.00000000       0.011
   0.12068966  0.00000000  0.00000000       0.011
   0.13793103  0.00000000  0.00000000       0.011
   0.15517241  0.00000000  0.00000000       0.011
   0.17241379  0.00000000  0.00000000       0.011
   0.18965517  0.00000000  0.00000000       0.011
   0.20689655  0.00000000  0.00000000       0.011
   0.22413793  0.00000000  0.00000000       0.011
   0.24137931  0.00000000  0.00000000       0.011
   0.25862069  0.00000000  0.00000000       0.011
   0.27586207  0.00000000  0.00000000       0.011
   0.29310345  0.00000000  0.00000000       0.011
   0.31034483  0.00000000  0.00000000       0.011
   0.32758621  0.00000000  0.00000000       0.011
   0.34482759  0.00000000  0.00000000       0.011
   0.36206897  0.00000000  0.00000000       0.011
   0.37931034  0.00000000  0.00000000       0.011
   0.39655172  0.00000000  0.00000000       0.011
   0.41379310  0.00000000  0.00000000       0.011
   0.43103448  0.00000000  0.00000000       0.011
   0.44827586  0.00000000  0.00000000       0.011
   0.46551724  0.00000000  0.00000000       0.011
   0.48275862  0.00000000  0.00000000       0.011
   0.50000000  0.00000000  0.00000000       0.011
   0.50000000  0.00000000  0.00000000       0.011
   0.50000000  0.01724138  0.00000000       0.011
   0.50000000  0.03448276  0.00000000       0.011
   0.50000000  0.05172414  0.00000000       0.011
   0.50000000  0.06896552  0.00000000       0.011
   0.50000000  0.08620690  0.00000000       0.011
   0.50000000  0.10344828  0.00000000       0.011
   0.50000000  0.12068966  0.00000000       0.011
   0.50000000  0.13793103  0.00000000       0.011
   0.50000000  0.15517241  0.00000000       0.011
   0.50000000  0.17241379  0.00000000       0.011
   0.50000000  0.18965517  0.00000000       0.011
   0.50000000  0.20689655  0.00000000       0.011
   0.50000000  0.22413793  0.00000000       0.011
   0.50000000  0.24137931  0.00000000       0.011
   0.50000000  0.25862069  0.00000000       0.011
   0.50000000  0.27586207  0.00000000       0.011
   0.50000000  0.29310345  0.00000000       0.011
   0.50000000  0.31034483  0.00000000       0.011
   0.50000000  0.32758621  0.00000000       0.011
   0.50000000  0.34482759  0.00000000       0.011
   0.50000000  0.36206897  0.00000000       0.011
   0.50000000  0.37931034  0.00000000       0.011
   0.50000000  0.39655172  0.00000000       0.011
   0.50000000  0.41379310  0.00000000       0.011
   0.50000000  0.43103448  0.00000000       0.011
   0.50000000  0.44827586  0.00000000       0.011
   0.50000000  0.46551724  0.00000000       0.011
   0.50000000  0.48275862  0.00000000       0.011
   0.50000000  0.50000000  0.00000000       0.011
   0.50000000  0.50000000  0.00000000       0.011
   0.48275862  0.48275862  0.00000000       0.011
   0.46551724  0.46551724  0.00000000       0.011
   0.44827586  0.44827586  0.00000000       0.011
   0.43103448  0.43103448  0.00000000       0.011
   0.41379310  0.41379310  0.00000000       0.011
   0.39655172  0.39655172  0.00000000       0.011
   0.37931034  0.37931034  0.00000000       0.011
   0.36206897  0.36206897  0.00000000       0.011
   0.34482759  0.34482759  0.00000000       0.011
   0.32758621  0.32758621  0.00000000       0.011
   0.31034483  0.31034483  0.00000000       0.011
   0.29310345  0.29310345  0.00000000       0.011
   0.27586207  0.27586207  0.00000000       0.011
   0.25862069  0.25862069  0.00000000       0.011
   0.24137931  0.24137931  0.00000000       0.011
   0.22413793  0.22413793  0.00000000       0.011
   0.20689655  0.20689655  0.00000000       0.011
   0.18965517  0.18965517  0.00000000       0.011
   0.17241379  0.17241379  0.00000000       0.011
   0.15517241  0.15517241  0.00000000       0.011
   0.13793103  0.13793103  0.00000000       0.011
   0.12068966  0.12068966  0.00000000       0.011
   0.10344828  0.10344828  0.00000000       0.011
   0.08620690  0.08620690  0.00000000       0.011
   0.06896552  0.06896552  0.00000000       0.011
   0.05172414  0.05172414  0.00000000       0.011
   0.03448276  0.03448276  0.00000000       0.011
   0.01724138  0.01724138  0.00000000       0.011
   0.00000000  0.00000000  0.00000000       0.011

 position of ions in fractional coordinates (direct lattice) 
   0.33334688  0.00000000  0.50000000
   0.66665312  0.00000000  0.50000000
   0.16665312  0.50000000  0.50000000
   0.83334688  0.50000000  0.50000000

 position of ions in cartesian coordinates  (Angst):
   1.42213127  0.00000000 10.00000000
   2.84408913  0.00000000 10.00000000
   0.71097893  1.23259435 10.00000000
   3.55524148  1.23259435 10.00000000



--------------------------------------------------------------------------------------------------------


 k-point  1 :   0.0000 0.0000 0.0000  plane waves:    3753
 k-point  2 :   0.0172 0.0000 0.0000  plane waves:    3753
 k-point  3 :   0.0345 0.0000 0.0000  plane waves:    3749
 k-point  4 :   0.0517 0.0000 0.0000  plane waves:    3742
 k-point  5 :   0.0690 0.0000 0.0000  plane waves:    3750
 k-point  6 :   0.0862 0.0000 0.0000  plane waves:    3756
 k-point  7 :   0.1034 0.0000 0.0000  plane waves:    3764
 k-point  8 :   0.1207 0.0000 0.0000  plane waves:    3748
 k-point  9 :   0.1379 0.0000 0.0000  plane waves:    3748
 k-point 10 :   0.1552 0.0000 0.0000  plane waves:    3752
 k-point 11 :   0.1724 0.0000 0.0000  plane waves:    3756
 k-point 12 :   0.1897 0.0000 0.0000  plane waves:    3760
 k-point 13 :   0.2069 0.0000 0.0000  plane waves:    3774
 k-point 14 :   0.2241 0.0000 0.0000  plane waves:    3770
 k-point 15 :   0.2414 0.0000 0.0000  plane waves:    3762
 k-point 16 :   0.2586 0.0000 0.0000  plane waves:    3760
 k-point 17 :   0.2759 0.0000 0.0000  plane waves:    3764
 k-point 18 :   0.2931 0.0000 0.0000  plane waves:    3776
 k-point 19 :   0.3103 0.0000 0.0000  plane waves:    3770
 k-point 20 :   0.3276 0.0000 0.0000  plane waves:    3774
 k-point 21 :   0.3448 0.0000 0.0000  plane waves:    3784
 k-point 22 :   0.3621 0.0000 0.0000  plane waves:    3786
 k-point 23 :   0.3793 0.0000 0.0000  plane waves:    3794
 k-point 24 :   0.3966 0.0000 0.0000  plane waves:    3784
 k-point 25 :   0.4138 0.0000 0.0000  plane waves:    3792
 k-point 26 :   0.4310 0.0000 0.0000  plane waves:    3796
 k-point 27 :   0.4483 0.0000 0.0000  plane waves:    3806
 k-point 28 :   0.4655 0.0000 0.0000  plane waves:    3808
 k-point 29 :   0.4828 0.0000 0.0000  plane waves:    3804
 k-point 30 :   0.5000 0.0000 0.0000  plane waves:    3806
 k-point 31 :   0.5000 0.0000 0.0000  plane waves:    3806
 k-point 32 :   0.5000 0.0172 0.0000  plane waves:    3792
 k-point 33 :   0.5000 0.0345 0.0000  plane waves:    3800
 k-point 34 :   0.5000 0.0517 0.0000  plane waves:    3804
 k-point 35 :   0.5000 0.0690 0.0000  plane waves:    3790
 k-point 36 :   0.5000 0.0862 0.0000  plane waves:    3800
 k-point 37 :   0.5000 0.1034 0.0000  plane waves:    3816
 k-point 38 :   0.5000 0.1207 0.0000  plane waves:    3816
 k-point 39 :   0.5000 0.1379 0.0000  plane waves:    3824
 k-point 40 :   0.5000 0.1552 0.0000  plane waves:    3820
 k-point 41 :   0.5000 0.1724 0.0000  plane waves:    3824
 k-point 42 :   0.5000 0.1897 0.0000  plane waves:    3840
 k-point 43 :   0.5000 0.2069 0.0000  plane waves:    3840
 k-point 44 :   0.5000 0.2241 0.0000  plane waves:    3836
 k-point 45 :   0.5000 0.2414 0.0000  plane waves:    3836
 k-point 46 :   0.5000 0.2586 0.0000  plane waves:    3842
 k-point 47 :   0.5000 0.2759 0.0000  plane waves:    3854
 k-point 48 :   0.5000 0.2931 0.0000  plane waves:    3862
 k-point 49 :   0.5000 0.3103 0.0000  plane waves:    3858
 k-point 50 :   0.5000 0.3276 0.0000  plane waves:    3866
 k-point 51 :   0.5000 0.3448 0.0000  plane waves:    3850
 k-point 52 :   0.5000 0.3621 0.0000  plane waves:    3846
 k-point 53 :   0.5000 0.3793 0.0000  plane waves:    3858
 k-point 54 :   0.5000 0.3966 0.0000  plane waves:    3854
 k-point 55 :   0.5000 0.4138 0.0000  plane waves:    3842
 k-point 56 :   0.5000 0.4310 0.0000  plane waves:    3838
 k-point 57 :   0.5000 0.4483 0.0000  plane waves:    3824
 k-point 58 :   0.5000 0.4655 0.0000  plane waves:    3806
 k-point 59 :   0.5000 0.4828 0.0000  plane waves:    3796
 k-point 60 :   0.5000 0.5000 0.0000  plane waves:    3788
 k-point 61 :   0.5000 0.5000 0.0000  plane waves:    3788
 k-point 62 :   0.4828 0.4828 0.0000  plane waves:    3802
 k-point 63 :   0.4655 0.4655 0.0000  plane waves:    3823
 k-point 64 :   0.4483 0.4483 0.0000  plane waves:    3836
 k-point 65 :   0.4310 0.4310 0.0000  plane waves:    3826
 k-point 66 :   0.4138 0.4138 0.0000  plane waves:    3836
 k-point 67 :   0.3966 0.3966 0.0000  plane waves:    3848
 k-point 68 :   0.3793 0.3793 0.0000  plane waves:    3836
 k-point 69 :   0.3621 0.3621 0.0000  plane waves:    3846
 k-point 70 :   0.3448 0.3448 0.0000  plane waves:    3852
 k-point 71 :   0.3276 0.3276 0.0000  plane waves:    3844
 k-point 72 :   0.3103 0.3103 0.0000  plane waves:    3834
 k-point 73 :   0.2931 0.2931 0.0000  plane waves:    3831
 k-point 74 :   0.2759 0.2759 0.0000  plane waves:    3833
 k-point 75 :   0.2586 0.2586 0.0000  plane waves:    3831
 k-point 76 :   0.2414 0.2414 0.0000  plane waves:    3835
 k-point 77 :   0.2241 0.2241 0.0000  plane waves:    3831
 k-point 78 :   0.2069 0.2069 0.0000  plane waves:    3815
 k-point 79 :   0.1897 0.1897 0.0000  plane waves:    3804
 k-point 80 :   0.1724 0.1724 0.0000  plane waves:    3806
 k-point 81 :   0.1552 0.1552 0.0000  plane waves:    3796
 k-point 82 :   0.1379 0.1379 0.0000  plane waves:    3798
 k-point 83 :   0.1207 0.1207 0.0000  plane waves:    3782
 k-point 84 :   0.1034 0.1034 0.0000  plane waves:    3782
 k-point 85 :   0.0862 0.0862 0.0000  plane waves:    3774
 k-point 86 :   0.0690 0.0690 0.0000  plane waves:    3770
 k-point 87 :   0.0517 0.0517 0.0000  plane waves:    3774
 k-point 88 :   0.0345 0.0345 0.0000  plane waves:    3757
 k-point 89 :   0.0172 0.0172 0.0000  plane waves:    3753
 k-point 90 :   0.0000 0.0000 0.0000  plane waves:    3753

 maximum and minimum number of plane-waves per node :      3866     3742

 maximum number of plane-waves:      3866
 maximum index in each direction: 
   IXMAX=    6   IYMAX=    4   IZMAX=   32
   IXMIN=   -7   IYMIN=   -4   IZMIN=  -32


 serial   3D FFT for wavefunctions
 parallel 3D FFT for charge:
    minimum data exchange during FFTs selected (reduces bandwidth)


 total amount of memory used by VASP MPI-rank0   165666. kBytes
=======================================================================

   base      :      30000. kBytes
   nonl-proj :      22515. kBytes
   fftplans  :       8715. kBytes
   grid      :      14615. kBytes
   one-center:         12. kBytes
   wavefun   :      89809. kBytes

     INWAV:  cpu time    0.0000: real time    0.0001
 initial charge density was supplied:
 number of electron      16.0000000 magnetization 
 keeping initial charge density in first step


--------------------------------------------------------------------------------------------------------


 Maximum index for augmentation-charges         1711 (set IRDMAX)


--------------------------------------------------------------------------------------------------------


 First call to EWALD:  gamma=   0.298
 Maximum number of real-space cells 4x 6x 1
 Maximum number of reciprocal cells 2x 1x 8

    FEWALD:  cpu time    0.0008: real time    0.0008


--------------------------------------- Iteration      1(   1)  ---------------------------------------


    POTLOK:  cpu time    0.1465: real time    0.1524
    SETDIJ:  cpu time    0.0028: real time    0.0028
     EDDAV:  cpu time   21.6683: real time   21.8850
       DOS:  cpu time    0.0034: real time    0.0034
    --------------------------------------------
      LOOP:  cpu time   21.8210: real time   22.0437

 eigenvalue-minimisations  :  5784
 total energy-change (2. order) : 0.7026034E+02  (-0.3718886E+03)
 number of electron      16.0000000 magnetization 
 augmentation part       16.0000000 magnetization 

 Free energy of the ion-electron system (eV)
  ---------------------------------------------------
  alpha Z        PSCENC =         6.24865773
  Ewald energy   TEWEN  =      2594.25031041
  -Hartree energ DENC   =     -3088.11017670
  -exchange      EXHF   =         0.00000000
  -V(xc)+E(xc)   XCENC  =        55.11388235
  PAW double counting   =      1719.67781561    -1722.38415485
  entropy T*S    EENTRO =        -0.00023240
  eigenvalues    EBANDS =       -83.04465581
  atomic energy  EATOM  =       588.50889549
  Solvation  Ediel_sol  =         0.00000000
  ---------------------------------------------------
  free energy    TOTEN  =        70.26034181 eV

  energy without entropy =       70.26057422  energy(sigma->0) =       70.26045801


--------------------------------------------------------------------------------------------------------




--------------------------------------- Iteration      1(   2)  ---------------------------------------


     EDDAV:  cpu time   28.3205: real time   28.8275
       DOS:  cpu time    0.0020: real time    0.0020
    --------------------------------------------
      LOOP:  cpu time   28.3225: real time   28.8295

 eigenvalue-minimisations  :  8000
 total energy-change (2. order) :-0.9587573E+02  (-0.7602532E+02)
 number of electron      16.0000000 magnetization 
 augmentation part       16.0000000 magnetization 

 Free energy of the ion-electron system (eV)
  ---------------------------------------------------
  alpha Z        PSCENC =         6.24865773
  Ewald energy   TEWEN  =      2594.25031041
  -Hartree energ DENC   =     -3088.11017670
  -exchange      EXHF   =         0.00000000
  -V(xc)+E(xc)   XCENC  =        55.11388235
  PAW double counting   =      1719.67781561    -1722.38415485
  entropy T*S    EENTRO =        -0.00000000
  eigenvalues    EBANDS =      -178.92062112
  atomic energy  EATOM  =       588.50889549
  Solvation  Ediel_sol  =         0.00000000
  ---------------------------------------------------
  free energy    TOTEN  =       -25.61539109 eV

  energy without entropy =      -25.61539109  energy(sigma->0) =      -25.61539109


--------------------------------------------------------------------------------------------------------




--------------------------------------- Iteration      1(   3)  ---------------------------------------


     EDDAV:  cpu time   27.3873: real time   27.5004
       DOS:  cpu time    0.0013: real time    0.0013
    --------------------------------------------
      LOOP:  cpu time   27.3886: real time   27.5017

 eigenvalue-minimisations  :  7672
 total energy-change (2. order) :-0.9895828E+01  (-0.9780007E+01)
 number of electron      16.0000000 magnetization 
 augmentation part       16.0000000 magnetization 

 Free energy of the ion-electron system (eV)
  ---------------------------------------------------
  alpha Z        PSCENC =         6.24865773
  Ewald energy   TEWEN  =      2594.25031041
  -Hartree energ DENC   =     -3088.11017670
  -exchange      EXHF   =         0.00000000
  -V(xc)+E(xc)   XCENC  =        55.11388235
  PAW double counting   =      1719.67781561    -1722.38415485
  entropy T*S    EENTRO =        -0.00000000
  eigenvalues    EBANDS =      -188.81644910
  atomic energy  EATOM  =       588.50889549
  Solvation  Ediel_sol  =         0.00000000
  ---------------------------------------------------
  free energy    TOTEN  =       -35.51121907 eV

  energy without entropy =      -35.51121907  energy(sigma->0) =      -35.51121907


--------------------------------------------------------------------------------------------------------




--------------------------------------- Iteration      1(   4)  ---------------------------------------


     EDDAV:  cpu time   17.8128: real time   17.8910
       DOS:  cpu time    0.0015: real time    0.0015
    --------------------------------------------
      LOOP:  cpu time   17.8143: real time   17.8925

 eigenvalue-minimisations  :  6872
 total energy-change (2. order) :-0.1213274E+00  (-0.1211677E+00)
 number of electron      16.0000000 magnetization 
 augmentation part       16.0000000 magnetization 

 Free energy of the ion-electron system (eV)
  ---------------------------------------------------
  alpha Z        PSCENC =         6.24865773
  Ewald energy   TEWEN  =      2594.25031041
  -Hartree energ DENC   =     -3088.11017670
  -exchange      EXHF   =         0.00000000
  -V(xc)+E(xc)   XCENC  =        55.11388235
  PAW double counting   =      1719.67781561    -1722.38415485
  entropy T*S    EENTRO =        -0.00000000
  eigenvalues    EBANDS =      -188.93777652
  atomic energy  EATOM  =       588.50889549
  Solvation  Ediel_sol  =         0.00000000
  ---------------------------------------------------
  free energy    TOTEN  =       -35.63254649 eV

  energy without entropy =      -35.63254649  energy(sigma->0) =      -35.63254649


--------------------------------------------------------------------------------------------------------




--------------------------------------- Iteration      1(   5)  ---------------------------------------


     EDDAV:  cpu time   18.8913: real time   18.9371
       DOS:  cpu time    0.0019: real time    0.0019
    --------------------------------------------
      LOOP:  cpu time   18.8932: real time   18.9389

 eigenvalue-minimisations  :  7472
 total energy-change (2. order) :-0.2212656E-02  (-0.2212215E-02)
 number of electron      16.0000000 magnetization 
 augmentation part       16.0000000 magnetization 

 Free energy of the ion-electron system (eV)
  ---------------------------------------------------
  alpha Z        PSCENC =         6.24865773
  Ewald energy   TEWEN  =      2594.25031041
  -Hartree energ DENC   =     -3088.11017670
  -exchange      EXHF   =         0.00000000
  -V(xc)+E(xc)   XCENC  =        55.11388235
  PAW double counting   =      1719.67781561    -1722.38415485
  entropy T*S    EENTRO =        -0.00000000
  eigenvalues    EBANDS =      -188.93998917
  atomic energy  EATOM  =       588.50889549
  Solvation  Ediel_sol  =         0.00000000
  ---------------------------------------------------
  free energy    TOTEN  =       -35.63475915 eV

  energy without entropy =      -35.63475915  energy(sigma->0) =      -35.63475915


--------------------------------------------------------------------------------------------------------




--------------------------------------- Iteration      1(   6)  ---------------------------------------


     EDDAV:  cpu time   18.8895: real time   18.9323
       DOS:  cpu time    0.0014: real time    0.0014
    --------------------------------------------
      LOOP:  cpu time   18.8909: real time   18.9337

 eigenvalue-minimisations  :  7448
 total energy-change (2. order) :-0.6269108E-04  (-0.6269079E-04)
 number of electron      16.0000000 magnetization 
 augmentation part       16.0000000 magnetization 

 Free energy of the ion-electron system (eV)
  ---------------------------------------------------
  alpha Z        PSCENC =         6.24865773
  Ewald energy   TEWEN  =      2594.25031041
  -Hartree energ DENC   =     -3088.11017670
  -exchange      EXHF   =         0.00000000
  -V(xc)+E(xc)   XCENC  =        55.11388235
  PAW double counting   =      1719.67781561    -1722.38415485
  entropy T*S    EENTRO =        -0.00000000
  eigenvalues    EBANDS =      -188.94005186
  atomic energy  EATOM  =       588.50889549
  Solvation  Ediel_sol  =         0.00000000
  ---------------------------------------------------
  free energy    TOTEN  =       -35.63482184 eV

  energy without entropy =      -35.63482184  energy(sigma->0) =      -35.63482184


--------------------------------------------------------------------------------------------------------




--------------------------------------- Iteration      1(   7)  ---------------------------------------


     EDDAV:  cpu time   19.6838: real time   19.7270
       DOS:  cpu time    0.0013: real time    0.0013
    --------------------------------------------
      LOOP:  cpu time   19.6851: real time   19.7283

 eigenvalue-minimisations  :  7880
 total energy-change (2. order) :-0.1458126E-05  (-0.1458102E-05)
 number of electron      16.0000000 magnetization 
 augmentation part       16.0000000 magnetization 

 Free energy of the ion-electron system (eV)
  ---------------------------------------------------
  alpha Z        PSCENC =         6.24865773
  Ewald energy   TEWEN  =      2594.25031041
  -Hartree energ DENC   =     -3088.11017670
  -exchange      EXHF   =         0.00000000
  -V(xc)+E(xc)   XCENC  =        55.11388235
  PAW double counting   =      1719.67781561    -1722.38415485
  entropy T*S    EENTRO =        -0.00000000
  eigenvalues    EBANDS =      -188.94005332
  atomic energy  EATOM  =       588.50889549
  Solvation  Ediel_sol  =         0.00000000
  ---------------------------------------------------
  free energy    TOTEN  =       -35.63482330 eV

  energy without entropy =      -35.63482330  energy(sigma->0) =      -35.63482330


--------------------------------------------------------------------------------------------------------




--------------------------------------- Iteration      1(   8)  ---------------------------------------


     EDDAV:  cpu time   16.6658: real time   16.7148
       DOS:  cpu time    0.0014: real time    0.0014
    --------------------------------------------
      LOOP:  cpu time   16.6672: real time   16.7162

 eigenvalue-minimisations  :  6280
 total energy-change (2. order) :-0.7153085E-07  (-0.7151933E-07)
 number of electron      16.0000000 magnetization 
 augmentation part       16.0000000 magnetization 

 Free energy of the ion-electron system (eV)
  ---------------------------------------------------
  alpha Z        PSCENC =         6.24865773
  Ewald energy   TEWEN  =      2594.25031041
  -Hartree energ DENC   =     -3088.11017670
  -exchange      EXHF   =         0.00000000
  -V(xc)+E(xc)   XCENC  =        55.11388235
  PAW double counting   =      1719.67781561    -1722.38415485
  entropy T*S    EENTRO =        -0.00000000
  eigenvalues    EBANDS =      -188.94005339
  atomic energy  EATOM  =       588.50889549
  Solvation  Ediel_sol  =         0.00000000
  ---------------------------------------------------
  free energy    TOTEN  =       -35.63482337 eV

  energy without entropy =      -35.63482337  energy(sigma->0) =      -35.63482337


--------------------------------------------------------------------------------------------------------




 average (electrostatic) potential at core
  the test charge radii are     0.6991
  (the norm of the test charge is              1.0000)
       1 -58.1945       2 -58.1945       3 -58.1945       4 -58.1945



 E-fermi :  -5.0500     XC(G=0):  -2.1823     alpha+bet : -1.9059


 k-point     1 :       0.0000    0.0000    0.0000
  band No.  band energies     occupation 
      1     -22.2788      2.00000
      2     -17.0187      2.00000
      3     -15.9902      2.00000
      4     -10.3742      2.00000
      5      -9.1653      2.00000
      6      -5.7700      2.00000
      7      -5.7691      2.00000
      8      -5.0968      2.00000
      9      -1.0594      0.00000
     10       0.5176      0.00000
     11       1.3072      0.00000
     12       1.6413      0.00000
     13       2.5690      0.00000
     14       3.0093      0.00000
     15       4.6344      0.00000
     16       4.6963      0.00000
     17       5.3121      0.00000
     18       5.6075      0.00000
     19       5.6306      0.00000
     20       7.6412      0.00000
     21       8.3907      0.00000
     22       8.4433      0.00000
     23       8.5430      0.00000
     24       8.7353      0.00000
     25       9.2319      0.00000
     26       9.4326      0.00000
     27       9.8000      0.00000
     28       9.8714      0.00000
     29       9.8812      0.00000
     30      10.5637      0.00000
     31      10.7427      0.00000
     32      11.1198      0.00000

 k-point     2 :       0.0172    0.0000    0.0000
  band No.  band energies     occupation 
      1     -22.2771      2.00000
      2     -17.0516      2.00000
      3     -15.9547      2.00000
      4     -10.3721      2.00000
      5      -9.1637      2.00000
      6      -5.7765      2.00000
      7      -5.7739      2.00000
      8      -5.1085      2.00000
      9      -1.0450      0.00000
     10       0.5200      0.00000
     11       1.3096      0.00000
     12       1.6438      0.00000
     13       2.5715      0.00000
     14       3.0117      0.00000
     15       4.6352      0.00000
     16       4.6987      0.00000
     17       5.3143      0.00000
     18       5.6158      0.00000
     19       5.6333      0.00000
     20       7.6436      0.00000
     21       8.1928      0.00000
     22       8.4457      0.00000
     23       8.7290      0.00000
     24       8.7440      0.00000
     25       9.0521      0.00000
     26       9.5955      0.00000
     27       9.6116      0.00000
     28       9.8031      0.00000
     29      10.1619      0.00000
     30      10.3769      0.00000
     31      10.8618      0.00000
     32      10.9340      0.00000

 k-point     3 :       0.0345    0.0000    0.0000
  band No.  band energies     occupation 
      1     -22.2718      2.00000
      2     -17.1393      2.00000
      3     -15.8593      2.00000
      4     -10.3657      2.00000
      5      -9.1585      2.00000
      6      -5.7979      2.00000
      7      -5.7855      2.00000
      8      -5.1432      2.00000
      9      -1.0021      0.00000
     10       0.5272      0.00000
     11       1.3169      0.00000
     12       1.6511      0.00000
     13       2.5787      0.00000
     14       3.0190      0.00000
     15       4.6379      0.00000
     16       4.7059      0.00000
     17       5.3210      0.00000
     18       5.6389      0.00000
     19       5.6397      0.00000
     20       7.6507      0.00000
     21       7.9382      0.00000
     22       8.4530      0.00000
     23       8.7116      0.00000
     24       8.8015      0.00000
     25       9.0077      0.00000
     26       9.3201      0.00000
     27       9.8126      0.00000
     28       9.8450      0.00000
     29      10.1451      0.00000
     30      10.4519      0.00000
     31      10.5931      0.00000
     32      11.1914      0.00000

 k-point     4 :       0.0517    0.0000    0.0000
  band No.  band energies     occupation 
      1     -22.2630      2.00000
      2     -17.2614      2.00000
      3     -15.7240      2.00000
      4     -10.3551      2.00000
      5      -9.1497      2.00000
      6      -5.8341      2.00000
      7      -5.8046      2.00000
      8      -5.1992      2.00000
      9      -0.9322      0.00000
     10       0.5391      0.00000
     11       1.3290      0.00000
     12       1.6634      0.00000
     13       2.5909      0.00000
     14       3.0311      0.00000
     15       4.6422      0.00000
     16       4.7179      0.00000
     17       5.3321      0.00000
     18       5.6455      0.00000
     19       5.6789      0.00000
     20       7.6625      0.00000
     21       7.6840      0.00000
     22       8.4652      0.00000
     23       8.5478      0.00000
     24       8.6817      0.00000
     25       9.0464      0.00000
     26       9.2806      0.00000
     27       9.8175      0.00000
     28       9.8286      0.00000
     29      10.1790      0.00000
     30      10.3276      0.00000
     31      10.7477      0.00000
     32      11.4101      0.00000

 k-point     5 :       0.0690    0.0000    0.0000
  band No.  band energies     occupation 
      1     -22.2506      2.00000
      2     -17.4025      2.00000
      3     -15.5647      2.00000
      4     -10.3404      2.00000
      5      -9.1374      2.00000
      6      -5.8849      2.00000
      7      -5.8315      2.00000
      8      -5.2746      2.00000
      9      -0.8377      0.00000
     10       0.5558      0.00000
     11       1.3459      0.00000
     12       1.6805      0.00000
     13       2.6079      0.00000
     14       3.0480      0.00000
     15       4.6483      0.00000
     16       4.7348      0.00000
     17       5.3476      0.00000
     18       5.6517      0.00000
     19       5.7323      0.00000
     20       7.4326      0.00000
     21       7.6791      0.00000
     22       8.2957      0.00000
     23       8.4822      0.00000
     24       8.6383      0.00000
     25       8.7809      0.00000
     26       9.5525      0.00000
     27       9.5800      0.00000
     28       9.8511      0.00000
     29      10.0679      0.00000
     30      10.4237      0.00000
     31      11.0475      0.00000
     32      11.4213      0.00000

 k-point     6 :       0.0862    0.0000    0.0000
  band No.  band energies     occupation 
      1     -22.2348      2.00000
      2     -17.5536      2.00000
      3     -15.3903      2.00000
      4     -10.3215      2.00000
      5      -9.1217      2.00000
      6      -5.9495      2.00000
      7      -5.8657      2.00000
      8      -5.3666      2.00000
      9      -0.7212      0.00000
     10       0.5773      0.00000
     11       1.3677      0.00000
     12       1.7026      0.00000
     13       2.6297      0.00000
     14       3.0698      0.00000
     15       4.6560      0.00000
     16       4.7564      0.00000
     17       5.3675      0.00000
     18       5.6609      0.00000
     19       5.8012      0.00000
     20       7.1848      0.00000
     21       7.7003      0.00000
     22       8.0466      0.00000
     23       8.5041      0.00000
     24       8.5195      0.00000
     25       8.5828      0.00000
     26       9.3321      0.00000
     27       9.7842      0.00000
     28       9.8559      0.00000
     29       9.8803      0.00000
     30      10.6682      0.00000
     31      11.3369      0.00000
     32      11.3520      0.00000

 k-point     7 :       0.1034    0.0000    0.0000
  band No.  band energies     occupation 
      1     -22.2154      2.00000
      2     -17.7095      2.00000
      3     -15.2057      2.00000
      4     -10.2984      2.00000
      5      -9.1025      2.00000
      6      -6.0276      2.00000
      7      -5.9067      2.00000
      8      -5.4728      2.00000
      9      -0.5849      0.00000
     10       0.6036      0.00000
     11       1.3944      0.00000
     12       1.7295      0.00000
     13       2.6564      0.00000
     14       3.0965      0.00000
     15       4.6655      0.00000
     16       4.7828      0.00000
     17       5.3915      0.00000
     18       5.6700      0.00000
     19       5.8842      0.00000
     20       6.9410      0.00000
     21       7.7263      0.00000
     22       7.8010      0.00000
     23       8.2628      0.00000
     24       8.5145      0.00000
     25       8.5309      0.00000
     26       9.0855      0.00000
     27       9.5550      0.00000
     28       9.9164      0.00000
     29      10.1110      0.00000
     30      10.8363      0.00000
     31      11.2222      0.00000
     32      11.4672      0.00000

 k-point     8 :       0.1207    0.0000    0.0000
  band No.  band energies     occupation 
      1     -22.1925      2.00000
      2     -17.8674      2.00000
      3     -15.0138      2.00000
      4     -10.2708      2.00000
      5      -9.0797      2.00000
      6      -6.1186      2.00000
      7      -5.9544      2.00000
      8      -5.5897      2.00000
      9      -0.4310      0.00000
     10       0.6347      0.00000
     11       1.4259      0.00000
     12       1.7613      0.00000
     13       2.6880      0.00000
     14       3.1279      0.00000
     15       4.6771      0.00000
     16       4.8141      0.00000
     17       5.4196      0.00000
     18       5.6816      0.00000
     19       5.9810      0.00000
     20       6.7015      0.00000
     21       7.5592      0.00000
     22       7.7571      0.00000
     23       8.0110      0.00000
     24       8.4356      0.00000
     25       8.5625      0.00000
     26       8.8422      0.00000
     27       9.3086      0.00000
     28       9.9598      0.00000
     29      10.3888      0.00000
     30      10.7617      0.00000
     31      11.3436      0.00000
     32      11.5083      0.00000

 k-point     9 :       0.1379    0.0000    0.0000
  band No.  band energies     occupation 
      1     -22.1662      2.00000
      2     -18.0258      2.00000
      3     -14.8164      2.00000
      4     -10.2393      2.00000
      5      -9.0536      2.00000
      6      -6.2220      2.00000
      7      -6.0082      2.00000
      8      -5.7171      2.00000
      9      -0.2632      0.00000
     10       0.6705      0.00000
     11       1.4622      0.00000
     12       1.7981      0.00000
     13       2.7244      0.00000
     14       3.1643      0.00000
     15       4.6898      0.00000
     16       4.8502      0.00000
     17       5.4514      0.00000
     18       5.6943      0.00000
     19       6.0937      0.00000
     20       6.4662      0.00000
     21       7.3212      0.00000
     22       7.7640      0.00000
     23       7.7925      0.00000
     24       8.3455      0.00000
     25       8.5989      0.00000
     26       8.6025      0.00000
     27       9.0661      0.00000
     28      10.0105      0.00000
     29      10.5699      0.00000
     30      10.6665      0.00000
     31      11.3018      0.00000
     32      11.5312      0.00000

 k-point    10 :       0.1552    0.0000    0.0000
  band No.  band energies     occupation 
      1     -22.1363      2.00000
      2     -18.1836      2.00000
      3     -14.6146      2.00000
      4     -10.2036      2.00000
      5      -9.0241      2.00000
      6      -6.3372      2.00000
      7      -6.0677      2.00000
      8      -5.8516      2.00000
      9      -0.0828      0.00000
     10       0.7111      0.00000
     11       1.5033      0.00000
     12       1.8397      0.00000
     13       2.7656      0.00000
     14       3.2054      0.00000
     15       4.7040      0.00000
     16       4.8910      0.00000
     17       5.4860      0.00000
     18       5.7064      0.00000
     19       6.2181      0.00000
     20       6.2355      0.00000
     21       7.0874      0.00000
     22       7.5218      0.00000
     23       7.8325      0.00000
     24       8.2445      0.00000
     25       8.3670      0.00000
     26       8.6401      0.00000
     27       8.8280      0.00000
     28      10.0688      0.00000
     29      10.3585      0.00000
     30      10.9352      0.00000
     31      11.0774      0.00000
     32      11.5696      0.00000

 k-point    11 :       0.1724    0.0000    0.0000
  band No.  band energies     occupation 
      1     -22.1028      2.00000
      2     -18.3402      2.00000
      3     -14.4091      2.00000
      4     -10.1638      2.00000
      5      -8.9912      2.00000
      6      -6.4639      2.00000
      7      -6.1326      2.00000
      8      -5.9915      2.00000
      9       0.1081      0.00000
     10       0.7565      0.00000
     11       1.5493      0.00000
     12       1.8862      0.00000
     13       2.8117      0.00000
     14       3.2514      0.00000
     15       4.7193      0.00000
     16       4.9367      0.00000
     17       5.5227      0.00000
     18       5.7211      0.00000
     19       6.0095      0.00000
     20       6.3558      0.00000
     21       6.8577      0.00000
     22       7.2845      0.00000
     23       7.8770      0.00000
     24       8.1325      0.00000
     25       8.1357      0.00000
     26       8.5945      0.00000
     27       8.6861      0.00000
     28      10.1346      0.00000
     29      10.1434      0.00000
     30      10.8329      0.00000
     31      11.2257      0.00000
     32      11.6128      0.00000

 k-point    12 :       0.1897    0.0000    0.0000
  band No.  band energies     occupation 
      1     -22.0659      2.00000
      2     -18.4950      2.00000
      3     -14.2004      2.00000
      4     -10.1197      2.00000
      5      -8.9552      2.00000
      6      -6.6007      2.00000
      7      -6.2018      2.00000
      8      -6.1361      2.00000
      9       0.3079      0.00000
     10       0.8067      0.00000
     11       1.6001      0.00000
     12       1.9377      0.00000
     13       2.8627      0.00000
     14       3.3023      0.00000
     15       4.7354      0.00000
     16       4.9871      0.00000
     17       5.5594      0.00000
     18       5.7396      0.00000
     19       5.7886      0.00000
     20       6.5066      0.00000
     21       6.6323      0.00000
     22       7.0521      0.00000
     23       7.9087      0.00000
     24       7.9249      0.00000
     25       8.0134      0.00000
     26       8.3656      0.00000
     27       8.7369      0.00000
     28       9.9288      0.00000
     29      10.2083      0.00000
     30      10.6100      0.00000
     31      11.4940      0.00000
     32      11.6605      0.00000

 k-point    13 :       0.2069    0.0000    0.0000
  band No.  band energies     occupation 
      1     -22.0255      2.00000
      2     -18.6477      2.00000
      3     -13.9889      2.00000
      4     -10.0716      2.00000
      5      -8.9156      2.00000
      6      -6.7474      2.00000
      7      -6.2831      2.00000
      8      -6.2762      2.00000
      9       0.5158      0.00000
     10       0.8617      0.00000
     11       1.6557      0.00000
     12       1.9940      0.00000
     13       2.9184      0.00000
     14       3.3580      0.00000
     15       4.7513      0.00000
     16       5.0422      0.00000
     17       5.5736      0.00000
     18       5.5921      0.00000
     19       5.7632      0.00000
     20       6.4114      0.00000
     21       6.6682      0.00000
     22       6.8246      0.00000
     23       7.6862      0.00000
     24       7.8744      0.00000
     25       7.9837      0.00000
     26       8.1415      0.00000
     27       8.7925      0.00000
     28       9.7165      0.00000
     29      10.2892      0.00000
     30      10.3901      0.00000
     31      11.7124      0.00000
     32      11.7570      0.00000

 k-point    14 :       0.2241    0.0000    0.0000
  band No.  band energies     occupation 
      1     -21.9816      2.00000
      2     -18.7981      2.00000
      3     -13.7747      2.00000
      4     -10.0194      2.00000
      5      -8.8727      2.00000
      6      -6.9029      2.00000
      7      -6.4317      2.00000
      8      -6.3541      2.00000
      9       0.7302      0.00000
     10       0.9214      0.00000
     11       1.7162      0.00000
     12       2.0552      0.00000
     13       2.9790      0.00000
     14       3.4185      0.00000
     15       4.7663      0.00000
     16       5.1022      0.00000
     17       5.3660      0.00000
     18       5.6170      0.00000
     19       5.7973      0.00000
     20       6.1950      0.00000
     21       6.6020      0.00000
     22       6.8409      0.00000
     23       7.4682      0.00000
     24       7.7354      0.00000
     25       7.9220      0.00000
     26       8.0414      0.00000
     27       8.8528      0.00000
     28       9.5072      0.00000
     29      10.1743      0.00000
     30      10.3785      0.00000
     31      11.7689      0.00000
     32      12.0126      0.00000

 k-point    15 :       0.2414    0.0000    0.0000
  band No.  band energies     occupation 
      1     -21.9342      2.00000
      2     -18.9460      2.00000
      3     -13.5582      2.00000
      4      -9.9630      2.00000
      5      -8.8265      2.00000
      6      -7.0672      2.00000
      7      -6.5812      2.00000
      8      -6.4353      2.00000
      9       0.9503      0.00000
     10       0.9860      0.00000
     11       1.7814      0.00000
     12       2.1214      0.00000
     13       3.0445      0.00000
     14       3.4839      0.00000
     15       4.7746      0.00000
     16       5.1669      0.00000
     17       5.1712      0.00000
     18       5.6321      0.00000
     19       5.8433      0.00000
     20       5.9831      0.00000
     21       6.3843      0.00000
     22       7.0248      0.00000
     23       7.2548      0.00000
     24       7.5855      0.00000
     25       7.7073      0.00000
     26       8.1047      0.00000
     27       8.9179      0.00000
     28       9.3013      0.00000
     29       9.9629      0.00000
     30      10.4752      0.00000
     31      11.8298      0.00000
     32      11.9796      0.00000

 k-point    16 :       0.2586    0.0000    0.0000
  band No.  band energies     occupation 
      1     -21.8833      2.00000
      2     -19.0913      2.00000
      3     -13.3396      2.00000
      4      -9.9025      2.00000
      5      -8.7771      2.00000
      6      -7.2393      2.00000
      7      -6.7310      2.00000
      8      -6.5194      2.00000
      9       1.0553      0.00000
     10       1.1750      0.00000
     11       1.8515      0.00000
     12       2.1924      0.00000
     13       3.1147      0.00000
     14       3.5541      0.00000
     15       4.7554      0.00000
     16       5.0096      0.00000
     17       5.2364      0.00000
     18       5.6381      0.00000
     19       5.7757      0.00000
     20       5.9005      0.00000
     21       6.1716      0.00000
     22       7.0460      0.00000
     23       7.2189      0.00000
     24       7.4270      0.00000
     25       7.4974      0.00000
     26       8.1729      0.00000
     27       8.9877      0.00000
     28       9.0991      0.00000
     29       9.7560      0.00000
     30      10.5792      0.00000
     31      11.8198      0.00000
     32      11.8950      0.00000

 k-point    17 :       0.2759    0.0000    0.0000
  band No.  band energies     occupation 
      1     -21.8290      2.00000
      2     -19.2338      2.00000
      3     -13.1192      2.00000
      4      -9.8379      2.00000
      5      -8.7247      2.00000
      6      -7.4191      2.00000
      7      -6.8807      2.00000
      8      -6.6059      2.00000
      9       1.1293      0.00000
     10       1.4033      0.00000
     11       1.9264      0.00000
     12       2.2683      0.00000
     13       3.1898      0.00000
     14       3.6291      0.00000
     15       4.6559      0.00000
     16       4.9341      0.00000
     17       5.3105      0.00000
     18       5.5729      0.00000
     19       5.6361      0.00000
     20       5.9638      0.00000
     21       5.9666      0.00000
     22       6.8418      0.00000
     23       7.2613      0.00000
     24       7.2922      0.00000
     25       7.4256      0.00000
     26       8.2458      0.00000
     27       8.9007      0.00000
     28       9.0622      0.00000
     29       9.5536      0.00000
     30      10.6882      0.00000
     31      11.6519      0.00000
     32      11.9645      0.00000

 k-point    18 :       0.2931    0.0000    0.0000
  band No.  band energies     occupation 
      1     -21.7712      2.00000
      2     -19.3735      2.00000
      3     -12.8972      2.00000
      4      -9.7693      2.00000
      5      -8.6693      2.00000
      6      -7.6054      2.00000
      7      -7.0296      2.00000
      8      -6.6947      2.00000
      9       1.2082      0.00000
     10       1.6350      0.00000
     11       2.0061      0.00000
     12       2.3491      0.00000
     13       3.2697      0.00000
     14       3.7089      0.00000
     15       4.4918      0.00000
     16       4.9288      0.00000
     17       5.3749      0.00000
     18       5.3893      0.00000
     19       5.6286      0.00000
     20       5.7610      0.00000
     21       6.0402      0.00000
     22       6.6423      0.00000
     23       7.0872      0.00000
     24       7.0919      0.00000
     25       7.6382      0.00000
     26       8.3233      0.00000
     27       8.7064      0.00000
     28       9.1414      0.00000
     29       9.3558      0.00000
     30      10.8047      0.00000
     31      11.4812      0.00000
     32      12.0383      0.00000

 k-point    19 :       0.3103    0.0000    0.0000
  band No.  band energies     occupation 
      1     -21.7099      2.00000
      2     -19.5103      2.00000
      3     -12.6735      2.00000
      4      -9.6966      2.00000
      5      -8.6108      2.00000
      6      -7.7973      2.00000
      7      -7.1770      2.00000
      8      -6.7849      2.00000
      9       1.2918      0.00000
     10       1.8696      0.00000
     11       2.0906      0.00000
     12       2.4348      0.00000
     13       3.3545      0.00000
     14       3.7936      0.00000
     15       4.3120      0.00000
     16       4.9448      0.00000
     17       5.1816      0.00000
     18       5.4727      0.00000
     19       5.5635      0.00000
     20       5.6172      0.00000
     21       6.1202      0.00000
     22       6.4475      0.00000
     23       6.8964      0.00000
     24       6.9077      0.00000
     25       7.8600      0.00000
     26       8.4055      0.00000
     27       8.5162      0.00000
     28       9.1625      0.00000
     29       9.2253      0.00000
     30      10.9279      0.00000
     31      11.3102      0.00000
     32      12.1164      0.00000

 k-point    20 :       0.3276    0.0000    0.0000
  band No.  band energies     occupation 
      1     -21.6452      2.00000
      2     -19.6442      2.00000
      3     -12.4485      2.00000
      4      -9.6200      2.00000
      5      -8.5493      2.00000
      6      -7.9949      2.00000
      7      -7.3229      2.00000
      8      -6.8765      2.00000
      9       1.3801      0.00000
     10       2.1060      0.00000
     11       2.1799      0.00000
     12       2.5255      0.00000
     13       3.4440      0.00000
     14       3.8831      0.00000
     15       4.1306      0.00000
     16       4.9666      0.00000
     17       4.9932      0.00000
     18       5.3716      0.00000
     19       5.5605      0.00000
     20       5.6016      0.00000
     21       6.2060      0.00000
     22       6.2574      0.00000
     23       6.7058      0.00000
     24       6.7202      0.00000
     25       8.0900      0.00000
     26       8.3304      0.00000
     27       8.4924      0.00000
     28       8.9740      0.00000
     29       9.3140      0.00000
     30      11.0556      0.00000
     31      11.1402      0.00000
     32      12.0656      0.00000

 k-point    21 :       0.3448    0.0000    0.0000
  band No.  band energies     occupation 
      1     -21.5770      2.00000
      2     -19.7750      2.00000
      3     -12.2226      2.00000
      4      -9.5397      2.00000
      5      -8.4852      2.00000
      6      -8.1972      2.00000
      7      -7.4668      2.00000
      8      -6.9690      2.00000
      9       1.4733      0.00000
     10       2.2739      0.00000
     11       2.3442      0.00000
     12       2.6210      0.00000
     13       3.5382      0.00000
     14       3.9514      0.00000
     15       3.9773      0.00000
     16       4.8099      0.00000
     17       4.9890      0.00000
     18       5.1880      0.00000
     19       5.5828      0.00000
     20       5.6522      0.00000
     21       6.0721      0.00000
     22       6.2974      0.00000
     23       6.5202      0.00000
     24       6.5271      0.00000
     25       8.1488      0.00000
     26       8.3275      0.00000
     27       8.5836      0.00000
     28       8.7901      0.00000
     29       9.4073      0.00000
     30      10.9722      0.00000
     31      11.1891      0.00000
     32      11.8849      0.00000

 k-point    22 :       0.3621    0.0000    0.0000
  band No.  band energies     occupation 
      1     -21.5054      2.00000
      2     -19.9027      2.00000
      3     -11.9954      2.00000
      4      -9.4551      2.00000
      5      -8.4180      2.00000
      6      -8.4042      2.00000
      7      -7.6085      2.00000
      8      -7.0621      2.00000
      9       1.5711      0.00000
     10       2.3726      0.00000
     11       2.5826      0.00000
     12       2.7214      0.00000
     13       3.6372      0.00000
     14       3.7756      0.00000
     15       4.0763      0.00000
     16       4.6319      0.00000
     17       4.9661      0.00000
     18       5.0569      0.00000
     19       5.5603      0.00000
     20       5.7467      0.00000
     21       5.8916      0.00000
     22       6.3302      0.00000
     23       6.3396      0.00000
     24       6.3941      0.00000
     25       7.9717      0.00000
     26       8.5734      0.00000
     27       8.6109      0.00000
     28       8.6797      0.00000
     29       9.5053      0.00000
     30      10.8068      0.00000
     31      11.3257      0.00000
     32      11.7084      0.00000

 k-point    23 :       0.3793    0.0000    0.0000
  band No.  band energies     occupation 
      1     -21.4303      2.00000
      2     -20.0273      2.00000
      3     -11.7675      2.00000
      4      -9.3667      2.00000
      5      -8.6151      2.00000
      6      -8.3481      2.00000
      7      -7.7478      2.00000
      8      -7.1555      2.00000
      9       1.6738      0.00000
     10       2.4761      0.00000
     11       2.8206      0.00000
     12       2.8267      0.00000
     13       3.6037      0.00000
     14       3.7409      0.00000
     15       4.1800      0.00000
     16       4.4596      0.00000
     17       4.8090      0.00000
     18       5.0655      0.00000
     19       5.5363      0.00000
     20       5.7159      0.00000
     21       5.8378      0.00000
     22       6.1363      0.00000
     23       6.1641      0.00000
     24       6.4959      0.00000
     25       7.7990      0.00000
     26       8.4363      0.00000
     27       8.7802      0.00000
     28       8.8243      0.00000
     29       9.6081      0.00000
     30      10.6443      0.00000
     31      11.4663      0.00000
     32      11.5362      0.00000

 k-point    24 :       0.3966    0.0000    0.0000
  band No.  band energies     occupation 
      1     -21.3518      2.00000
      2     -20.1488      2.00000
      3     -11.5386      2.00000
      4      -9.2743      2.00000
      5      -8.8296      2.00000
      6      -8.2755      2.00000
      7      -7.8844      2.00000
      8      -7.2487      2.00000
      9       1.7812      0.00000
     10       2.5843      0.00000
     11       2.9369      0.00000
     12       3.0581      0.00000
     13       3.4360      0.00000
     14       3.8492      0.00000
     15       4.2885      0.00000
     16       4.2943      0.00000
     17       4.6383      0.00000
     18       5.0936      0.00000
     19       5.5112      0.00000
     20       5.5452      0.00000
     21       5.8488      0.00000
     22       5.9940      0.00000
     23       6.0226      0.00000
     24       6.6028      0.00000
     25       7.6308      0.00000
     26       8.2666      0.00000
     27       8.8854      0.00000
     28       9.0817      0.00000
     29       9.7155      0.00000
     30      10.4852      0.00000
     31      11.3686      0.00000
     32      11.6086      0.00000

 k-point    25 :       0.4138    0.0000    0.0000
  band No.  band energies     occupation 
      1     -21.2700      2.00000
      2     -20.2671      2.00000
      3     -11.3096      2.00000
      4      -9.1782      2.00000
      5      -9.0469      2.00000
      6      -8.2005      2.00000
      7      -8.0184      2.00000
      8      -7.3417      2.00000
      9       1.8933      0.00000
     10       2.6970      0.00000
     11       3.0520      0.00000
     12       3.2727      0.00000
     13       3.2889      0.00000
     14       3.9620      0.00000
     15       4.1387      0.00000
     16       4.4015      0.00000
     17       4.4706      0.00000
     18       5.1234      0.00000
     19       5.3794      0.00000
     20       5.4830      0.00000
     21       5.6717      0.00000
     22       5.8297      0.00000
     23       6.0972      0.00000
     24       6.7147      0.00000
     25       7.4671      0.00000
     26       8.1015      0.00000
     27       8.9950      0.00000
     28       9.3439      0.00000
     29       9.8276      0.00000
     30      10.3295      0.00000
     31      11.2054      0.00000
     32      11.7543      0.00000

 k-point    26 :       0.4310    0.0000    0.0000
  band No.  band energies     occupation 
      1     -21.1847      2.00000
      2     -20.3822      2.00000
      3     -11.0803      2.00000
      4      -9.2669      2.00000
      5      -9.0783      2.00000
      6      -8.1493      2.00000
      7      -8.1231      2.00000
      8      -7.4339      2.00000
      9       2.0101      0.00000
     10       2.8144      0.00000
     11       3.1139      0.00000
     12       3.1719      0.00000
     13       3.5020      0.00000
     14       4.0046      0.00000
     15       4.0791      0.00000
     16       4.3071      0.00000
     17       4.5190      0.00000
     18       5.1523      0.00000
     19       5.2190      0.00000
     20       5.4536      0.00000
     21       5.4601      0.00000
     22       5.6724      0.00000
     23       6.2076      0.00000
     24       6.8315      0.00000
     25       7.3080      0.00000
     26       7.9412      0.00000
     27       9.1091      0.00000
     28       9.6132      0.00000
     29       9.9444      0.00000
     30      10.1776      0.00000
     31      11.0468      0.00000
     32      11.9033      0.00000

 k-point    27 :       0.4483    0.0000    0.0000
  band No.  band energies     occupation 
      1     -21.0961      2.00000
      2     -20.4941      2.00000
      3     -10.8511      2.00000
      4      -9.4892      2.00000
      5      -8.9746      2.00000
      6      -8.2772      2.00000
      7      -8.0435      2.00000
      8      -7.5254      2.00000
      9       2.1317      0.00000
     10       2.9361      0.00000
     11       2.9597      0.00000
     12       3.2968      0.00000
     13       3.6317      0.00000
     14       3.9571      0.00000
     15       4.1483      0.00000
     16       4.1997      0.00000
     17       4.6407      0.00000
     18       5.0642      0.00000
     19       5.1767      0.00000
     20       5.2414      0.00000
     21       5.4230      0.00000
     22       5.5252      0.00000
     23       6.3268      0.00000
     24       6.9533      0.00000
     25       7.1536      0.00000
     26       7.7856      0.00000
     27       9.2276      0.00000
     28       9.8862      0.00000
     29      10.0295      0.00000
     30      10.0659      0.00000
     31      10.8928      0.00000
     32      11.6165      0.00000

 k-point    28 :       0.4655    0.0000    0.0000
  band No.  band energies     occupation 
      1     -21.0041      2.00000
      2     -20.6027      2.00000
      3     -10.6220      2.00000
      4      -9.7131      2.00000
      5      -8.8673      2.00000
      6      -8.4020      2.00000
      7      -7.9616      2.00000
      8      -7.6156      2.00000
      9       2.2580      0.00000
     10       2.8101      0.00000
     11       3.0620      0.00000
     12       3.4265      0.00000
     13       3.5786      0.00000
     14       3.9943      0.00000
     15       4.0935      0.00000
     16       4.3221      0.00000
     17       4.7662      0.00000
     18       4.9164      0.00000
     19       5.0223      0.00000
     20       5.1828      0.00000
     21       5.3929      0.00000
     22       5.4007      0.00000
     23       6.4521      0.00000
     24       7.0037      0.00000
     25       7.0799      0.00000
     26       7.6349      0.00000
     27       9.3505      0.00000
     28       9.8853      0.00000
     29      10.1651      0.00000
     30      10.1921      0.00000
     31      10.7434      0.00000
     32      11.3183      0.00000

 k-point    29 :       0.4828    0.0000    0.0000
  band No.  band energies     occupation 
      1     -20.9087      2.00000
      2     -20.7080      2.00000
      3     -10.3934      2.00000
      4      -9.9385      2.00000
      5      -8.7562      2.00000
      6      -8.5234      2.00000
      7      -7.8778      2.00000
      8      -7.7043      2.00000
      9       2.3890      0.00000
     10       2.6651      0.00000
     11       3.1917      0.00000
     12       3.4566      0.00000
     13       3.5612      0.00000
     14       3.8450      0.00000
     15       4.2952      0.00000
     16       4.4374      0.00000
     17       4.7803      0.00000
     18       4.8133      0.00000
     19       4.8942      0.00000
     20       5.1318      0.00000
     21       5.3388      0.00000
     22       5.3647      0.00000
     23       6.5827      0.00000
     24       6.8586      0.00000
     25       7.2114      0.00000
     26       7.4889      0.00000
     27       9.4778      0.00000
     28       9.7453      0.00000
     29      10.3229      0.00000
     30      10.4494      0.00000
     31      10.5986      0.00000
     32      11.0255      0.00000

 k-point    30 :       0.5000    0.0000    0.0000
  band No.  band energies     occupation 
      1     -20.8100      2.00000
      2     -20.8100      2.00000
      3     -10.1655      2.00000
      4     -10.1655      2.00000
      5      -8.6413      2.00000
      6      -8.6413      2.00000
      7      -7.7921      2.00000
      8      -7.7921      2.00000
      9       2.5247      0.00000
     10       2.5247      0.00000
     11       3.3242      0.00000
     12       3.3242      0.00000
     13       3.7007      0.00000
     14       3.7007      0.00000
     15       4.4650      0.00000
     16       4.4650      0.00000
     17       4.6940      0.00000
     18       4.6940      0.00000
     19       5.0211      0.00000
     20       5.0211      0.00000
     21       5.3416      0.00000
     22       5.3416      0.00000
     23       6.7183      0.00000
     24       6.7183      0.00000
     25       7.3477      0.00000
     26       7.3477      0.00000
     27       9.6095      0.00000
     28       9.6095      0.00000
     29      10.4585      0.00000
     30      10.4585      0.00000
     31      10.7355      0.00000
     32      10.7355      0.00000

 k-point    31 :       0.5000    0.0000    0.0000
  band No.  band energies     occupation 
      1     -20.8100      2.00000
      2     -20.8100      2.00000
      3     -10.1655      2.00000
      4     -10.1655      2.00000
      5      -8.6413      2.00000
      6      -8.6413      2.00000
      7      -7.7921      2.00000
      8      -7.7921      2.00000
      9       2.5247      0.00000
     10       2.5247      0.00000
     11       3.3242      0.00000
     12       3.3242      0.00000
     13       3.7007      0.00000
     14       3.7007      0.00000
     15       4.4650      0.00000
     16       4.4650      0.00000
     17       4.6940      0.00000
     18       4.6940      0.00000
     19       5.0211      0.00000
     20       5.0211      0.00000
     21       5.3416      0.00000
     22       5.3416      0.00000
     23       6.7183      0.00000
     24       6.7183      0.00000
     25       7.3477      0.00000
     26       7.3477      0.00000
     27       9.6095      0.00000
     28       9.6095      0.00000
     29      10.4585      0.00000
     30      10.4585      0.00000
     31      10.7355      0.00000
     32      10.7355      0.00000

 k-point    32 :       0.5000    0.0172    0.0000
  band No.  band energies     occupation 
      1     -20.8048      2.00000
      2     -20.8048      2.00000
      3     -10.1659      2.00000
      4     -10.1659      2.00000
      5      -8.6354      2.00000
      6      -8.6354      2.00000
      7      -7.8138      2.00000
      8      -7.8138      2.00000
      9       2.5319      0.00000
     10       2.5319      0.00000
     11       3.3314      0.00000
     12       3.3314      0.00000
     13       3.7080      0.00000
     14       3.7080      0.00000
     15       4.4637      0.00000
     16       4.4637      0.00000
     17       4.6944      0.00000
     18       4.6944      0.00000
     19       5.0306      0.00000
     20       5.0306      0.00000
     21       5.3702      0.00000
     22       5.3702      0.00000
     23       6.7249      0.00000
     24       6.7249      0.00000
     25       7.3550      0.00000
     26       7.3550      0.00000
     27       9.6157      0.00000
     28       9.6157      0.00000
     29      10.4637      0.00000
     30      10.4637      0.00000
     31      10.6761      0.00000
     32      10.6761      0.00000

 k-point    33 :       0.5000    0.0345    0.0000
  band No.  band energies     occupation 
      1     -20.7893      2.00000
      2     -20.7893      2.00000
      3     -10.1676      2.00000
      4     -10.1676      2.00000
      5      -8.6172      2.00000
      6      -8.6172      2.00000
      7      -7.8790      2.00000
      8      -7.8790      2.00000
      9       2.5535      0.00000
     10       2.5535      0.00000
     11       3.3531      0.00000
     12       3.3531      0.00000
     13       3.7301      0.00000
     14       3.7301      0.00000
     15       4.4555      0.00000
     16       4.4555      0.00000
     17       4.6979      0.00000
     18       4.6979      0.00000
     19       5.0575      0.00000
     20       5.0575      0.00000
     21       5.4563      0.00000
     22       5.4563      0.00000
[...]
     26       9.3098      0.00000
     27       9.4061      0.00000
     28      10.2034      0.00000
     29      11.1378      0.00000
     30      11.1747      0.00000
     31      11.5523      0.00000
     32      11.6061      0.00000

 k-point    81 :       0.1552    0.1552    0.0000
  band No.  band energies     occupation 
      1     -21.7106      2.00000
      2     -17.7940      2.00000
      3     -14.3200      2.00000
      4     -10.6236      2.00000
      5      -9.6976      2.00000
      6      -7.8024      2.00000
      7      -6.7797      2.00000
      8      -5.3720      2.00000
      9      -0.2910      0.00000
     10       1.2907      0.00000
     11       2.0896      0.00000
     12       2.4338      0.00000
     13       3.3534      0.00000
     14       3.7926      0.00000
     15       5.4716      0.00000
     16       5.6242      0.00000
     17       6.1199      0.00000
     18       6.7453      0.00000
     19       6.9064      0.00000
     20       7.0175      0.00000
     21       7.5305      0.00000
     22       7.8708      0.00000
     23       8.1147      0.00000
     24       8.4047      0.00000
     25       8.8255      0.00000
     26       9.2244      0.00000
     27       9.4058      0.00000
     28      10.3385      0.00000
     29      10.9158      0.00000
     30      11.0688      0.00000
     31      11.6336      0.00000
     32      11.6500      0.00000

 k-point    82 :       0.1379    0.1379    0.0000
  band No.  band energies     occupation 
      1     -21.8296      2.00000
      2     -17.7197      2.00000
      3     -14.5728      2.00000
      4     -10.3659      2.00000
      5      -9.8387      2.00000
      6      -7.4237      2.00000
      7      -6.6014      2.00000
      8      -5.3341      2.00000
      9      -0.4106      0.00000
     10       1.1285      0.00000
     11       1.9256      0.00000
     12       2.2675      0.00000
     13       3.1890      0.00000
     14       3.6283      0.00000
     15       5.3097      0.00000
     16       5.6391      0.00000
     17       5.9667      0.00000
     18       6.5126      0.00000
     19       6.9229      0.00000
     20       7.2601      0.00000
     21       7.4373      0.00000
     22       7.6653      0.00000
     23       8.2321      0.00000
     24       8.2451      0.00000
     25       8.9577      0.00000
     26       9.0614      0.00000
     27       9.5213      0.00000
     28      10.4823      0.00000
     29      10.6775      0.00000
     30      10.8686      0.00000
     31      11.6501      0.00000
     32      11.7400      0.00000

 k-point    83 :       0.1207    0.1207    0.0000
  band No.  band energies     occupation 
      1     -21.9347      2.00000
      2     -17.6344      2.00000
      3     -14.8203      2.00000
      4     -10.1192      2.00000
      5      -9.9636      2.00000
      6      -7.0711      2.00000
      7      -6.4314      2.00000
      8      -5.2934      2.00000
      9      -0.5329      0.00000
     10       0.9853      0.00000
     11       1.7808      0.00000
     12       2.1207      0.00000
     13       3.0438      0.00000
     14       3.4832      0.00000
     15       5.1663      0.00000
     16       5.6319      0.00000
     17       5.8436      0.00000
     18       6.1181      0.00000
     19       7.0400      0.00000
     20       7.0408      0.00000
     21       7.5845      0.00000
     22       7.8175      0.00000
     23       8.1043      0.00000
     24       8.3692      0.00000
     25       8.9173      0.00000
     26       9.1077      0.00000
     27       9.6559      0.00000
     28      10.4661      0.00000
     29      10.5950      0.00000
     30      10.6156      0.00000
     31      11.5823      0.00000
     32      11.8429      0.00000

 k-point    84 :       0.1034    0.1034    0.0000
  band No.  band energies     occupation 
      1     -22.0258      2.00000
      2     -17.5394      2.00000
      3     -15.0592      2.00000
      4     -10.0721      2.00000
      5      -9.8899      2.00000
      6      -6.7506      2.00000
      7      -6.2730      2.00000
      8      -5.2520      2.00000
      9      -0.6527      0.00000
     10       0.8612      0.00000
     11       1.6553      0.00000
     12       1.9936      0.00000
     13       2.9180      0.00000
     14       3.3575      0.00000
     15       5.0418      0.00000
     16       5.5898      0.00000
     17       5.7507      0.00000
     18       5.7614      0.00000
     19       6.6842      0.00000
     20       7.1874      0.00000
     21       7.8739      0.00000
     22       7.9839      0.00000
     23       7.9865      0.00000
     24       8.5258      0.00000
     25       8.7921      0.00000
     26       9.2747      0.00000
     27       9.8087      0.00000
     28      10.2821      0.00000
     29      10.2884      0.00000
     30      10.6940      0.00000
     31      11.4833      0.00000
     32      11.7120      0.00000

 k-point    85 :       0.0862    0.0862    0.0000
  band No.  band energies     occupation 
      1     -22.1031      2.00000
      2     -17.4363      2.00000
      3     -15.2859      2.00000
      4     -10.1640      2.00000
      5      -9.6835      2.00000
      6      -6.4665      2.00000
      7      -6.1297      2.00000
      8      -5.2113      2.00000
      9      -0.7648      0.00000
     10       0.7562      0.00000
     11       1.5490      0.00000
     12       1.8859      0.00000
     13       2.8114      0.00000
     14       3.2511      0.00000
     15       4.9364      0.00000
     16       5.4258      0.00000
     17       5.5210      0.00000
     18       5.7155      0.00000
     19       6.3737      0.00000
     20       7.3543      0.00000
     21       7.8766      0.00000
     22       8.1333      0.00000
     23       8.1718      0.00000
     24       8.6858      0.00000
     25       8.7020      0.00000
     26       9.4574      0.00000
     27       9.9354      0.00000
     28      10.0155      0.00000
     29      10.1291      0.00000
     30      10.6419      0.00000
     31      11.4569      0.00000
     32      11.5328      0.00000

 k-point    86 :       0.0690    0.0690    0.0000
  band No.  band energies     occupation 
      1     -22.1663      2.00000
      2     -17.3281      2.00000
      3     -15.4964      2.00000
      4     -10.2395      2.00000
      5      -9.5056      2.00000
      6      -6.2239      2.00000
      7      -6.0063      2.00000
      8      -5.1741      2.00000
      9      -0.8644      0.00000
     10       0.6703      0.00000
     11       1.4620      0.00000
     12       1.7979      0.00000
     13       2.7242      0.00000
     14       3.1640      0.00000
     15       4.8500      0.00000
     16       5.1495      0.00000
     17       5.4504      0.00000
     18       5.6847      0.00000
     19       6.1118      0.00000
     20       7.5400      0.00000
     21       7.7922      0.00000
     22       8.3452      0.00000
     23       8.3726      0.00000
     24       8.5987      0.00000
     25       8.8976      0.00000
     26       9.6437      0.00000
     27       9.6531      0.00000
     28      10.0068      0.00000
     29      10.1806      0.00000
     30      10.4555      0.00000
     31      11.1627      0.00000
     32      11.5164      0.00000

 k-point    87 :       0.0517    0.0517    0.0000
  band No.  band energies     occupation 
      1     -22.2155      2.00000
      2     -17.2199      2.00000
      3     -15.6850      2.00000
      4     -10.2985      2.00000
      5      -9.3609      2.00000
      6      -6.0291      2.00000
      7      -5.9054      2.00000
      8      -5.1422      2.00000
      9      -0.9470      0.00000
     10       0.6035      0.00000
     11       1.3942      0.00000
     12       1.7294      0.00000
     13       2.6563      0.00000
     14       3.0963      0.00000
     15       4.7827      0.00000
     16       4.9281      0.00000
     17       5.3909      0.00000
     18       5.6570      0.00000
     19       5.9010      0.00000
     20       7.7262      0.00000
     21       7.7438      0.00000
     22       8.5144      0.00000
     23       8.5308      0.00000
     24       8.5886      0.00000
     25       9.1119      0.00000
     26       9.3343      0.00000
     27       9.8470      0.00000
     28       9.9142      0.00000
     29      10.2220      0.00000
     30      10.3906      0.00000
     31      10.8127      0.00000
     32      11.4521      0.00000

 k-point    88 :       0.0345    0.0345    0.0000
  band No.  band energies     occupation 
      1     -22.2507      2.00000
      2     -17.1210      2.00000
      3     -15.8416      2.00000
      4     -10.3405      2.00000
      5      -9.2538      2.00000
      6      -5.8859      2.00000
      7      -5.8306      2.00000
      8      -5.1180      2.00000
      9      -1.0086      0.00000
     10       0.5558      0.00000
     11       1.3459      0.00000
     12       1.6805      0.00000
     13       2.6078      0.00000
     14       3.0480      0.00000
     15       4.7347      0.00000
     16       4.7664      0.00000
     17       5.3474      0.00000
     18       5.6357      0.00000
     19       5.7501      0.00000
     20       7.6790      0.00000
     21       7.9646      0.00000
     22       8.4822      0.00000
     23       8.6382      0.00000
     24       8.8178      0.00000
     25       9.0324      0.00000
     26       9.3492      0.00000
     27       9.8501      0.00000
     28       9.8536      0.00000
     29      10.1723      0.00000
     30      10.4808      0.00000
     31      10.6209      0.00000
     32      11.2070      0.00000

 k-point    89 :       0.0172    0.0172    0.0000
  band No.  band energies     occupation 
      1     -22.2718      2.00000
      2     -17.0470      2.00000
      3     -15.9503      2.00000
      4     -10.3658      2.00000
      5      -9.1875      2.00000
      6      -5.7992      2.00000
      7      -5.7848      2.00000
      8      -5.1022      2.00000
      9      -1.0465      0.00000
     10       0.5271      0.00000
     11       1.3169      0.00000
     12       1.6511      0.00000
     13       2.5787      0.00000
     14       3.0190      0.00000
     15       4.6675      0.00000
     16       4.7059      0.00000
     17       5.3209      0.00000
     18       5.6181      0.00000
     19       5.6594      0.00000
     20       7.6507      0.00000
     21       8.1992      0.00000
     22       8.4530      0.00000
     23       8.7103      0.00000
     24       8.7503      0.00000
     25       9.0554      0.00000
     26       9.6028      0.00000
     27       9.6160      0.00000
     28       9.8124      0.00000
     29      10.1691      0.00000
     30      10.3820      0.00000
     31      10.8687      0.00000
     32      10.9392      0.00000

 k-point    90 :       0.0000    0.0000    0.0000
  band No.  band energies     occupation 
      1     -22.2788      2.00000
      2     -17.0187      2.00000
      3     -15.9902      2.00000
      4     -10.3742      2.00000
      5      -9.1653      2.00000
      6      -5.7700      2.00000
      7      -5.7691      2.00000
      8      -5.0968      2.00000
      9      -1.0594      0.00000
     10       0.5176      0.00000
     11       1.3072      0.00000
     12       1.6413      0.00000
     13       2.5690      0.00000
     14       3.0093      0.00000
     15       4.6344      0.00000
     16       4.6963      0.00000
     17       5.3121      0.00000
     18       5.6075      0.00000
     19       5.6306      0.00000
     20       7.6412      0.00000
     21       8.3907      0.00000
     22       8.4433      0.00000
     23       8.5430      0.00000
     24       8.7353      0.00000
     25       9.2319      0.00000
     26       9.4326      0.00000
     27       9.8000      0.00000
     28       9.8714      0.00000
     29       9.8812      0.00000
     30      10.5637      0.00000
     31      10.7427      0.00000
     32      11.1189      0.00000


--------------------------------------------------------------------------------------------------------


 soft charge-density along one line, spin component           1
         0         1         2         3         4         5         6         7         8         9
 total charge-density along one line

 pseudopotential strength for first ion, spin component:           1
 10.217  13.587  -0.000  -0.000  -0.000   0.000   0.000   0.000
 13.587  18.068  -0.000  -0.000  -0.000   0.000   0.000   0.000
 -0.000  -0.000  -4.349   0.000  -0.000   8.506  -0.000   0.000
 -0.000  -0.000   0.000  -4.341  -0.000  -0.000   8.497   0.000
 -0.000  -0.000  -0.000  -0.000  -4.349   0.000   0.000   8.506
  0.000   0.000   8.506  -0.000   0.000 -18.775   0.000  -0.000
  0.000   0.000  -0.000   8.497   0.000   0.000 -18.766  -0.000
  0.000   0.000   0.000   0.000   8.506  -0.000  -0.000 -18.775
 total augmentation occupancy for first ion, spin component:           1
  2.000   0.000   0.000   0.000   0.000   0.000   0.000   0.000
  0.000   0.000   0.000   0.000   0.000   0.000   0.000   0.000
  0.000   0.000   0.667   0.000   0.000   0.000   0.000   0.000
  0.000   0.000   0.000   0.667   0.000   0.000   0.000   0.000
  0.000   0.000   0.000   0.000   0.667   0.000   0.000   0.000
  0.000   0.000   0.000   0.000   0.000   0.000   0.000   0.000
  0.000   0.000   0.000   0.000   0.000   0.000   0.000   0.000
  0.000   0.000   0.000   0.000   0.000   0.000   0.000   0.000


------------------------ aborting loop because EDIFF is reached ----------------------------------------





 total charge     

# of ion       s       p       d       tot
------------------------------------------
    1        0.830   1.842   0.000   2.672
    2        0.830   1.842   0.000   2.672
    3        0.830   1.842   0.000   2.672
    4        0.830   1.842   0.000   2.672
--------------------------------------------------
tot          3.318   7.369   0.000  10.687

    CHARGE:  cpu time    0.4524: real time    0.4547
    FORLOC:  cpu time    0.0083: real time    0.0083
    FORNL :  cpu time    1.9157: real time    1.9184
    STRESS:  cpu time    5.3276: real time    5.3374
    FORCOR:  cpu time    0.1178: real time    0.1179
    FORHAR:  cpu time    0.0306: real time    0.0306
    OFIELD:  cpu time    0.0003: real time    0.0003

  FORCE on cell =-STRESS in cart. coord.  units (eV):
  Direction    XX          YY          ZZ          XY          YZ          ZX
  --------------------------------------------------------------------------------------
  Alpha Z     6.24866     6.24866     6.24866
  Ewald    3132.56493  3132.23555 -3670.55045     0.00000     0.00000     0.00000
  Hartree  3066.42989  3067.01681 -3043.26024    -0.00000    -0.00000    -0.00000
  E(xc)     -59.43562   -59.46680   -61.65727     0.00000     0.00000    -0.00000
  Local   -6367.29744 -6375.16087  6511.78629    -0.00000    -0.00000    -0.00000
  n-local   -19.27687   -18.55014   -15.69496     0.03838     0.00000     0.00000
  augment    -1.73685    -1.70819    -1.60661     0.00000     0.00000    -0.00000
  Kinetic   247.51710   244.72315   275.77938    -1.72188    -0.00000     0.00000
  Fock        0.00000     0.00000     0.00000     0.00000     0.00000     0.00000
  -------------------------------------------------------------------------------------
  Total       5.01380    -4.66184     1.04481     0.00000     0.00000     0.00000
  in kB      38.19040   -35.50948     7.95835     0.00000     0.00000     0.00000
  external pressure =        3.55 kB  Pullay stress =        0.00 kB


 VOLUME and BASIS-vectors are now :
 -----------------------------------------------------------------------------
  energy-cutoff  :      400.00
  volume of cell :      210.34
      direct lattice vectors                 reciprocal lattice vectors
     4.266220405  0.000000000  0.000000000     0.234399516  0.000000000  0.000000000
     0.000000000  2.465188698  0.000000000     0.000000000  0.405648461  0.000000000
     0.000000000  0.000000000 20.000000000     0.000000000  0.000000000  0.050000000

  length of vectors
     4.266220405  2.465188698 20.000000000     0.234399516  0.405648461  0.050000000


 FORCES acting on ions
    electron-ion (+dipol)            ewald-force                    non-local-force                 convergence-correction
 -----------------------------------------------------------------------------------------------
   -.552E+00 -.631E-09 0.845E-06   -.207E+00 0.235E-07 -.796E-20   -.149E+01 0.694E-17 -.132E-22   0.286E+00 -.503E-08 0.876E-12
   0.552E+00 -.631E-09 -.845E-06   0.207E+00 0.235E-07 0.403E-17   0.149E+01 -.694E-17 0.000E+00   -.286E+00 -.503E-08 0.639E-12
   0.552E+00 -.185E-07 -.845E-06   0.207E+00 -.235E-07 -.480E-17   0.149E+01 -.347E-17 0.132E-22   -.286E+00 0.741E-08 0.111E-11
   -.552E+00 -.185E-07 0.845E-06   -.207E+00 -.235E-07 0.779E-18   -.149E+01 0.694E-17 -.165E-22   0.286E+00 0.741E-08 0.906E-12
 -----------------------------------------------------------------------------------------------
   -.388E-07 -.384E-07 0.126E-11   0.638E-15 -.768E-14 0.000E+00   -.888E-15 0.347E-17 -.165E-22   0.491E-08 0.476E-08 0.353E-11


 POSITION                                       TOTAL-FORCE (eV/Angst)
 -----------------------------------------------------------------------------------
      1.42213      0.00000     10.00000        -1.958901     -0.000000      0.000000
      2.84409      0.00000     10.00000         1.958901      0.000000     -0.000000
      0.71098      1.23259     10.00000         1.958901      0.000000      0.000000
      3.55524      1.23259     10.00000        -1.958901      0.000000      0.000000
 -----------------------------------------------------------------------------------
    total drift:                               -0.000000     -0.000000      0.000000


--------------------------------------------------------------------------------------------------------



  FREE ENERGIE OF THE ION-ELECTRON SYSTEM (eV)
  ---------------------------------------------------
  free  energy   TOTEN  =       -35.63482337 eV

  energy  without entropy=      -35.63482337  energy(sigma->0) =      -35.63482337



--------------------------------------------------------------------------------------------------------


    POTLOK:  cpu time    0.1037: real time    0.1038


--------------------------------------------------------------------------------------------------------


     LOOP+:  cpu time  177.4522: real time  178.5702
    4ORBIT:  cpu time    0.0000: real time    0.0000



 total charge     

# of ion       s       p       d       tot
------------------------------------------
    1        0.830   1.842   0.000   2.672
    2        0.830   1.842   0.000   2.672
    3        0.830   1.842   0.000   2.672
    4        0.830   1.842   0.000   2.672
--------------------------------------------------
tot          3.318   7.369   0.000  10.687


 total amount of memory used by VASP MPI-rank0   165666. kBytes
=======================================================================

   base      :      30000. kBytes
   nonl-proj :      22515. kBytes
   fftplans  :       8715. kBytes
   grid      :      14615. kBytes
   one-center:         12. kBytes
   wavefun   :      89809. kBytes

  
  
 General timing and accounting informations for this job:
 ========================================================
  
                  Total CPU time used (sec):      181.343
                            User time (sec):      180.356
                          System time (sec):        0.987
                         Elapsed time (sec):      183.003
  
                   Maximum memory used (kb):   188391424.
                   Average memory used (kb):           0.
  
                          Minor page faults:        47608
                          Major page faults:            2
                 Voluntary context switches:           27
