PROCAR lm decomposed
# of k-points:   90         # of bands:   32         # of ions:    4

 k-point     1 :    0.00000000 0.00000000 0.00000000     weight = 0.01111111

band     1 # energy  -22.27881909 # occ.  2.00000000

ion      s     py     pz     px    dxy    dyz    dz2    dxz  x2-y2    tot
    1  0.162  0.000  0.000  0.000  0.000  0.000  0.000  0.000  0.000  0.162
    2  0.162  0.000  0.000  0.000  0.000  0.000  0.000  0.000  0.000  0.162
    3  0.162  0.000  0.000  0.000  0.000  0.000  0.000  0.000  0.000  0.162
    4  0.162  0.000  0.000  0.000  0.000  0.000  0.000  0.000  0.000  0.162
tot    0.646  0.000  0.000  0.000  0.000  0.000  0.000  0.000  0.000  0.646

band     2 # energy  -17.01873078 # occ.  2.00000000

ion      s     py     pz     px    dxy    dyz    dz2    dxz  x2-y2    tot
    1  0.150  0.000  0.000  0.032  0.000  0.000  0.000  0.000  0.000  0.182
    2  0.150  0.000  0.000  0.032  0.000  0.000  0.000  0.000  0.000  0.182
    3  0.150  0.000  0.000  0.032  0.000  0.000  0.000  0.000  0.000  0.182
    4  0.150  0.000  0.000  0.032  0.000  0.000  0.000  0.000  0.000  0.182
tot    0.600  0.000  0.000  0.127  0.000  0.000  0.000  0.000  0.000  0.727

band     3 # energy  -15.99016706 # occ.  2.00000000

ion      s     py     pz     px    dxy    dyz    dz2    dxz  x2-y2    tot
    1  0.069  0.000  0.000  0.098  0.000  0.000  0.000  0.000  0.000  0.167
    2  0.069  0.000  0.000  0.098  0.000  0.000  0.000  0.000  0.000  0.167
    3  0.069  0.000  0.000  0.098  0.000  0.000  0.000  0.000  0.000  0.167
    4  0.069  0.000  0.000  0.098  0.000  0.000  0.000  0.000  0.000  0.167
tot    0.277  0.000  0.000  0.393  0.000  0.000  0.000  0.000  0.000  0.670

band     4 # energy  -10.37416840 # occ.  2.00000000

ion      s     py     pz     px    dxy    dyz    dz2    dxz  x2-y2    tot
    1  0.000  0.000  0.108  0.000  0.000  0.000  0.000  0.000  0.000  0.108
    2  0.000  0.000  0.108  0.000  0.000  0.000  0.000  0.000  0.000  0.108
    3  0.000  0.000  0.108  0.000  0.000  0.000  0.000  0.000  0.000  0.108
    4  0.000  0.000  0.108  0.000  0.000  0.000  0.000  0.000  0.000  0.108
tot    0.000  0.000  0.432  0.000  0.000  0.000  0.000  0.000  0.000  0.432

band     5 # energy   -9.16534903 # occ.  2.00000000

ion      s     py     pz     px    dxy    dyz    dz2    dxz  x2-y2    tot
    1  0.000  0.197  0.000  0.000  0.000  0.000  0.000  0.000  0.000  0.197
    2  0.000  0.197  0.000  0.000  0.000  0.000  0.000  0.000  0.000  0.197
    3  0.000  0.197  0.000  0.000  0.000  0.000  0.000  0.000  0.000  0.197
    4  0.000  0.197  0.000  0.000  0.000  0.000  0.000  0.000  0.000  0.197
tot    0.000  0.787  0.000  0.000  0.000  0.000  0.000  0.000  0.000  0.787

band     6 # energy   -5.76999256 # occ.  2.00000000

ion      s     py     pz     px    dxy    dyz    dz2    dxz  x2-y2    tot
    1  0.000  0.207  0.000  0.000  0.000  0.000  0.000  0.000  0.000  0.207
    2  0.000  0.207  0.000  0.000  0.000  0.000  0.000  0.000  0.000  0.207
    3  0.000  0.207  0.000  0.000  0.000  0.000  0.000  0.000  0.000  0.207
    4  0.000  0.207  0.000  0.000  0.000  0.000  0.000  0.000  0.000  0.207
tot    0.000  0.827  0.000  0.000  0.000  0.000  0.000  0.000  0.000  0.827

band     7 # energy   -5.76914155 # occ.  2.00000000

ion      s     py     pz     px    dxy    dyz    dz2    dxz  x2-y2    tot
    1  0.000  0.000  0.000  0.207  0.000  0.000  0.000  0.000  0.000  0.207
    2  0.000  0.000  0.000  0.207  0.000  0.000  0.000  0.000  0.000  0.207
    3  0.000  0.000  0.000  0.207  0.000  0.000  0.000  0.000  0.000  0.207
    4  0.000  0.000  0.000  0.207  0.000  0.000  0.000  0.000  0.000  0.207
tot    0.000  0.000  0.000  0.827  0.000  0.000  0.000  0.000  0.000  0.827

band     8 # energy   -5.09679345 # occ.  2.00000000

ion      s     py     pz     px    dxy    dyz    dz2    dxz  x2-y2    tot
    1  0.000  0.000  0.128  0.000  0.000  0.000  0.000  0.000  0.000  0.128
    2  0.000  0.000  0.128  0.000  0.000  0.000  0.000  0.000  0.000  0.128
    3  0.000  0.000  0.128  0.000  0.000  0.000  0.000  0.000  0.000  0.128
    4  0.000  0.000  0.128  0.000  0.000  0.000  0.000  0.000  0.000  0.128
tot    0.000  0.000  0.512  0.000  0.000  0.000  0.000  0.000  0.000  0.512

band     9 # energy   -1.05938556 # occ.  0.00000000

ion      s     py     pz     px    dxy    dyz    dz2    dxz  x2-y2    tot
    1  0.000  0.000  0.112  0.000  0.000  0.000  0.000  0.000  0.000  0.112
    2  0.000  0.000  0.112  0.000  0.000  0.000  0.000  0.000  0.000  0.112
    3  0.000  0.000  0.112  0.000  0.000  0.000  0.000  0.000  0.000  0.112
    4  0.000  0.000  0.112  0.000  0.000  0.000  0.000  0.000  0.000  0.112
tot    0.000  0.000  0.450  0.000  0.000  0.000  0.000  0.000  0.000  0.450

band    10 # energy    0.51758877 # occ.  0.00000000

ion      s     py     pz     px    dxy    dyz    dz2    dxz  x2-y2    tot
    1  0.005  0.000  0.000  0.000  0.000  0.000  0.000  0.000  0.000  0.005
    2  0.005  0.000  0.000  0.000  0.000  0.000  0.000  0.000  0.000  0.005
    3  0.005  0.000  0.000  0.000  0.000  0.000  0.000  0.000  0.000  0.005
    4  0.005  0.000  0.000  0.000  0.000  0.000  0.000  0.000  0.000  0.005
tot    0.020  0.000  0.000  0.000  0.000  0.000  0.000  0.000  0.000  0.020

band    11 # energy    1.30718478 # occ.  0.00000000

ion      s     py     pz     px    dxy    dyz    dz2    dxz  x2-y2    tot
    1  0.000  0.000  0.006  0.000  0.000  0.000  0.000  0.000  0.000  0.006
    2  0.000  0.000  0.006  0.000  0.000  0.000  0.000  0.000  0.000  0.006
    3  0.000  0.000  0.006  0.000  0.000  0.000  0.000  0.000  0.000  0.006
    4  0.000  0.000  0.006  0.000  0.000  0.000  0.000  0.000  0.000  0.006
tot    0.000  0.000  0.022  0.000  0.000  0.000  0.000  0.000  0.000  0.022

band    12 # energy    1.64134448 # occ.  0.00000000

ion      s     py     pz     px    dxy    dyz    dz2    dxz  x2-y2    tot
    1  0.000  0.000  0.000  0.000  0.000  0.000  0.000  0.000  0.000  0.000
    2  0.000  0.000  0.000  0.000  0.000  0.000  0.000  0.000  0.000  0.000
    3  0.000  0.000  0.000  0.000  0.000  0.000  0.000  0.000  0.000  0.000
    4  0.000  0.000  0.000  0.000  0.000  0.000  0.000  0.000  0.000  0.000
tot    0.002  0.000  0.000  0.000  0.000  0.000  0.000  0.000  0.000  0.002

band    13 # energy    2.56902896 # occ.  0.00000000

ion      s     py     pz     px    dxy    dyz    dz2    dxz  x2-y2    tot
    1  0.000  0.000  0.004  0.000  0.000  0.000  0.000  0.000  0.000  0.004
    2  0.000  0.000  0.004  0.000  0.000  0.000  0.000  0.000  0.000  0.004
    3  0.000  0.000  0.004  0.000  0.000  0.000  0.000  0.000  0.000  0.004
    4  0.000  0.000  0.004  0.000  0.000  0.000  0.000  0.000  0.000  0.004
tot    0.000  0.000  0.017  0.000  0.000  0.000  0.000  0.000  0.000  0.017

band    14 # energy    3.00930675 # occ.  0.00000000

ion      s     py     pz     px    dxy    dyz    dz2    dxz  x2-y2    tot
    1  0.002  0.000  0.000  0.000  0.000  0.000  0.000  0.000  0.000  0.002
    2  0.002  0.000  0.000  0.000  0.000  0.000  0.000  0.000  0.000  0.002
    3  0.002  0.000  0.000  0.000  0.000  0.000  0.000  0.000  0.000  0.002
    4  0.002  0.000  0.000  0.000  0.000  0.000  0.000  0.000  0.000  0.002
tot    0.007  0.000  0.000  0.000  0.000  0.000  0.000  0.000  0.000  0.007

band    15 # energy    4.63442815 # occ.  0.00000000

ion      s     py     pz     px    dxy    dyz    dz2    dxz  x2-y2    tot
    1  0.092  0.000  0.000  0.020  0.000  0.000  0.000  0.000  0.000  0.113
    2  0.092  0.000  0.000  0.020  0.000  0.000  0.000  0.000  0.000  0.113
    3  0.092  0.000  0.000  0.020  0.000  0.000  0.000  0.000  0.000  0.113
    4  0.092  0.000  0.000  0.020  0.000  0.000  0.000  0.000  0.000  0.113
tot    0.370  0.000  0.000  0.081  0.000  0.000  0.000  0.000  0.000  0.451

band    16 # energy    4.69628267 # occ.  0.00000000

ion      s     py     pz     px    dxy    dyz    dz2    dxz  x2-y2    tot
    1  0.000  0.000  0.006  0.000  0.000  0.000  0.000  0.000  0.000  0.006
    2  0.000  0.000  0.006  0.000  0.000  0.000  0.000  0.000  0.000  0.006
    3  0.000  0.000  0.006  0.000  0.000  0.000  0.000  0.000  0.000  0.006
    4  0.000  0.000  0.006  0.000  0.000  0.000  0.000  0.000  0.000  0.006
tot    0.000  0.000  0.025  0.000  0.000  0.000  0.000  0.000  0.000  0.025

band    17 # energy    5.31210749 # occ.  0.00000000

ion      s     py     pz     px    dxy    dyz    dz2    dxz  x2-y2    tot
    1  0.003  0.000  0.000  0.000  0.000  0.000  0.000  0.000  0.000  0.003
    2  0.003  0.000  0.000  0.000  0.000  0.000  0.000  0.000  0.000  0.003
    3  0.003  0.000  0.000  0.000  0.000  0.000  0.000  0.000  0.000  0.003
    4  0.003  0.000  0.000  0.000  0.000  0.000  0.000  0.000  0.000  0.003
tot    0.011  0.000  0.000  0.000  0.000  0.000  0.000  0.000  0.000  0.011

band    18 # energy    5.60753990 # occ.  0.00000000

ion      s     py     pz     px    dxy    dyz    dz2    dxz  x2-y2    tot
    1  0.000  0.132  0.000  0.000  0.000  0.000  0.000  0.000  0.000  0.132
    2  0.000  0.132  0.000  0.000  0.000  0.000  0.000  0.000  0.000  0.132
    3  0.000  0.132  0.000  0.000  0.000  0.000  0.000  0.000  0.000  0.132
    4  0.000  0.132  0.000  0.000  0.000  0.000  0.000  0.000  0.000  0.132
tot    0.000  0.527  0.000  0.000  0.000  0.000  0.000  0.000  0.000  0.527

band    19 # energy    5.63057375 # occ.  0.00000000

ion      s     py     pz     px    dxy    dyz    dz2    dxz  x2-y2    tot
    1  0.000  0.000  0.000  0.132  0.000  0.000  0.000  0.000  0.000  0.132
    2  0.000  0.000  0.000  0.132  0.000  0.000  0.000  0.000  0.000  0.132
    3  0.000  0.000  0.000  0.132  0.000  0.000  0.000  0.000  0.000  0.132
    4  0.000  0.000  0.000  0.132  0.000  0.000  0.000  0.000  0.000  0.132
tot    0.000  0.000  0.000  0.527  0.000  0.000  0.000  0.000  0.000  0.527

band    20 # energy    7.64122254 # occ.  0.00000000

ion      s     py     pz     px    dxy    dyz    dz2    dxz  x2-y2    tot
    1  0.000  0.000  0.009  0.000  0.000  0.000  0.000  0.000  0.000  0.009
    2  0.000  0.000  0.009  0.000  0.000  0.000  0.000  0.000  0.000  0.009
    3  0.000  0.000  0.009  0.000  0.000  0.000  0.000  0.000  0.000  0.009
    4  0.000  0.000  0.009  0.000  0.000  0.000  0.000  0.000  0.000  0.009
tot    0.000  0.000  0.035  0.000  0.000  0.000  0.000  0.000  0.000  0.035

band    21 # energy    8.39067040 # occ.  0.00000000

ion      s     py     pz     px    dxy    dyz    dz2    dxz  x2-y2    tot
    1  0.002  0.000  0.000  0.007  0.000  0.000  0.000  0.000  0.000  0.009
    2  0.002  0.000  0.000  0.007  0.000  0.000  0.000  0.000  0.000  0.009
    3  0.002  0.000  0.000  0.007  0.000  0.000  0.000  0.000  0.000  0.009
    4  0.002  0.000  0.000  0.007  0.000  0.000  0.000  0.000  0.000  0.009
tot    0.009  0.000  0.000  0.028  0.000  0.000  0.000  0.000  0.000  0.037

band    22 # energy    8.44326185 # occ.  0.00000000

ion      s     py     pz     px    dxy    dyz    dz2    dxz  x2-y2    tot
    1  0.003  0.000  0.000  0.000  0.000  0.000  0.000  0.000  0.000  0.003
    2  0.003  0.000  0.000  0.000  0.000  0.000  0.000  0.000  0.000  0.003
    3  0.003  0.000  0.000  0.000  0.000  0.000  0.000  0.000  0.000  0.003
    4  0.003  0.000  0.000  0.000  0.000  0.000  0.000  0.000  0.000  0.003
tot    0.012  0.000  0.000  0.000  0.000  0.000  0.000  0.000  0.000  0.012

band    23 # energy    8.54296854 # occ.  0.00000000

ion      s     py     pz     px    dxy    dyz    dz2    dxz  x2-y2    tot
    1  0.001  0.000  0.000  0.008  0.000  0.000  0.000  0.000  0.000  0.009
    2  0.001  0.000  0.000  0.008  0.000  0.000  0.000  0.000  0.000  0.009
    3  0.001  0.000  0.000  0.008  0.000  0.000  0.000  0.000  0.000  0.009
    4  0.001  0.000  0.000  0.008  0.000  0.000  0.000  0.000  0.000  0.009
tot    0.004  0.000  0.000  0.032  0.000  0.000  0.000  0.000  0.000  0.035

band    24 # energy    8.73526184 # occ.  0.00000000

ion      s     py     pz     px    dxy    dyz    dz2    dxz  x2-y2    tot
    1  0.000  0.000  0.196  0.000  0.000  0.000  0.000  0.000  0.000  0.196
    2  0.000  0.000  0.196  0.000  0.000  0.000  0.000  0.000  0.000  0.196
    3  0.000  0.000  0.196  0.000  0.000  0.000  0.000  0.000  0.000  0.196
    4  0.000  0.000  0.196  0.000  0.000  0.000  0.000  0.000  0.000  0.196
tot    0.000  0.000  0.783  0.000  0.000  0.000  0.000  0.000  0.000  0.783

band    25 # energy    9.23190784 # occ.  0.00000000

ion      s     py     pz     px    dxy    dyz    dz2    dxz  x2-y2    tot
    1  0.000  0.000  0.019  0.000  0.000  0.000  0.000  0.000  0.000  0.019
    2  0.000  0.000  0.019  0.000  0.000  0.000  0.000  0.000  0.000  0.019
    3  0.000  0.000  0.019  0.000  0.000  0.000  0.000  0.000  0.000  0.019
    4  0.000  0.000  0.019  0.000  0.000  0.000  0.000  0.000  0.000  0.019
tot    0.000  0.000  0.075  0.000  0.000  0.000  0.000  0.000  0.000  0.075

band    26 # energy    9.43259951 # occ.  0.00000000

ion      s     py     pz     px    dxy    dyz    dz2    dxz  x2-y2    tot
    1  0.000  0.000  0.006  0.000  0.000  0.000  0.000  0.000  0.000  0.006
    2  0.000  0.000  0.006  0.000  0.000  0.000  0.000  0.000  0.000  0.006
    3  0.000  0.000  0.006  0.000  0.000  0.000  0.000  0.000  0.000  0.006
    4  0.000  0.000  0.006  0.000  0.000  0.000  0.000  0.000  0.000  0.006
tot    0.000  0.000  0.023  0.000  0.000  0.000  0.000  0.000  0.000  0.023

band    27 # energy    9.79996358 # occ.  0.00000000

ion      s     py     pz     px    dxy    dyz    dz2    dxz  x2-y2    tot
    1  0.179  0.000  0.000  0.000  0.000  0.000  0.000  0.000  0.000  0.179
    2  0.179  0.000  0.000  0.000  0.000  0.000  0.000  0.000  0.000  0.179
    3  0.179  0.000  0.000  0.000  0.000  0.000  0.000  0.000  0.000  0.179
    4  0.179  0.000  0.000  0.000  0.000  0.000  0.000  0.000  0.000  0.179
tot    0.716  0.000  0.000  0.000  0.000  0.000  0.000  0.000  0.000  0.716

band    28 # energy    9.87136754 # occ.  0.00000000

ion      s     py     pz     px    dxy    dyz    dz2    dxz  x2-y2    tot
    1  0.000  0.000  0.000  0.001  0.000  0.000  0.000  0.000  0.000  0.001
    2  0.000  0.000  0.000  0.001  0.000  0.000  0.000  0.000  0.000  0.001
    3  0.000  0.000  0.000  0.001  0.000  0.000  0.000  0.000  0.000  0.001
    4  0.000  0.000  0.000  0.001  0.000  0.000  0.000  0.000  0.000  0.001
tot    0.000  0.000  0.000  0.002  0.000  0.000  0.000  0.000  0.000  0.003

band    29 # energy    9.88115509 # occ.  0.00000000

ion      s     py     pz     px    dxy    dyz    dz2    dxz  x2-y2    tot
    1  0.000  0.000  0.000  0.001  0.000  0.000  0.000  0.000  0.000  0.001
    2  0.000  0.000  0.000  0.001  0.000  0.000  0.000  0.000  0.000  0.001
    3  0.000  0.000  0.000  0.001  0.000  0.000  0.000  0.000  0.000  0.001
    4  0.000  0.000  0.000  0.001  0.000  0.000  0.000  0.000  0.000  0.001
tot    0.000  0.000  0.000  0.003  0.000  0.000  0.000  0.000  0.000  0.003

band    30 # energy   10.56369650 # occ.  0.00000000

ion      s     py     pz     px    dxy    dyz    dz2    dxz  x2-y2    tot
    1  0.000  0.000  0.009  0.000  0.000  0.000  0.000  0.000  0.000  0.009
    2  0.000  0.000  0.009  0.000  0.000  0.000  0.000  0.000  0.000  0.009
    3  0.000  0.000  0.009  0.000  0.000  0.000  0.000  0.000  0.000  0.009
    4  0.000  0.000  0.009  0.000  0.000  0.000  0.000  0.000  0.000  0.009
tot    0.000  0.000  0.035  0.000  0.000  0.000  0.000  0.000  0.000  0.035

band    31 # energy   10.74268713 # occ.  0.00000000

ion      s     py     pz     px    dxy    dyz    dz2    dxz  x2-y2    tot
    1  0.000  0.000  0.004  0.000  0.000  0.000  0.000  0.000  0.000  0.004
    2  0.000  0.000  0.004  0.000  0.000  0.000  0.000  0.000  0.000  0.004
    3  0.000  0.000  0.004  0.000  0.000  0.000  0.000  0.000  0.000  0.004
    4  0.000  0.000  0.004  0.000  0.000  0.000  0.000  0.000  0.000  0.004
tot    0.000  0.000  0.014  0.000  0.000  0.000  0.000  0.000  0.000  0.014

band    32 # energy   11.11980357 # occ.  0.00000000

ion      s     py     pz     px    dxy    dyz    dz2    dxz  x2-y2    tot
    1  0.000  0.000  0.000  0.004  0.000  0.000  0.000  0.000  0.000  0.004
    2  0.000  0.000  0.000  0.003  0.000  0.000  0.000  0.000  0.000  0.003
    3  0.000  0.000  0.000  0.003  0.000  0.000  0.000  0.000  0.000  0.003
    4  0.000  0.000  0.000  0.004  0.000  0.000  0.000  0.000  0.000  0.004
tot    0.002  0.000  0.000  0.013  0.000  0.000  0.000  0.000  0.000  0.015


 k-point     2 :    0.01724138 0.00000000 0.00000000     weight = 0.01111111

band     1 # energy  -22.27705738 # occ.  2.00000000

ion      s     py     pz     px    dxy    dyz    dz2    dxz  x2-y2    tot
    1  0.162  0.000  0.000  0.000  0.000  0.000  0.000  0.000  0.000  0.162
    2  0.162  0.000  0.000  0.000  0.000  0.000  0.000  0.000  0.000  0.162
    3  0.162  0.000  0.000  0.000  0.000  0.000  0.000  0.000  0.000  0.162
    4  0.162  0.000  0.000  0.000  0.000  0.000  0.000  0.000  0.000  0.162
tot    0.646  0.000  0.000  0.000  0.000  0.000  0.000  0.000  0.000  0.646

band     2 # energy  -17.05157992 # occ.  2.00000000

ion      s     py     pz     px    dxy    dyz    dz2    dxz  x2-y2    tot
    1  0.148  0.000  0.000  0.033  0.000  0.000  0.000  0.000  0.000  0.181
    2  0.148  0.000  0.000  0.033  0.000  0.000  0.000  0.000  0.000  0.181
    3  0.148  0.000  0.000  0.033  0.000  0.000  0.000  0.000  0.000  0.181
    4  0.148  0.000  0.000  0.033  0.000  0.000  0.000  0.000  0.000  0.181
tot    0.592  0.000  0.000  0.133  0.000  0.000  0.000  0.000  0.000  0.725

band     3 # energy  -15.95472583 # occ.  2.00000000

ion      s     py     pz     px    dxy    dyz    dz2    dxz  x2-y2    tot
    1  0.071  0.000  0.000  0.097  0.000  0.000  0.000  0.000  0.000  0.168
    2  0.071  0.000  0.000  0.097  0.000  0.000  0.000  0.000  0.000  0.168
    3  0.071  0.000  0.000  0.097  0.000  0.000  0.000  0.000  0.000  0.168
    4  0.071  0.000  0.000  0.097  0.000  0.000  0.000  0.000  0.000  0.168
tot    0.284  0.000  0.000  0.388  0.000  0.000  0.000  0.000  0.000  0.672

band     4 # energy  -10.37206031 # occ.  2.00000000

ion      s     py     pz     px    dxy    dyz    dz2    dxz  x2-y2    tot
    1  0.000  0.000  0.108  0.000  0.000  0.000  0.000  0.000  0.000  0.108
    2  0.000  0.000  0.108  0.000  0.000  0.000  0.000  0.000  0.000  0.108
    3  0.000  0.000  0.108  0.000  0.000  0.000  0.000  0.000  0.000  0.108
    4  0.000  0.000  0.108  0.000  0.000  0.000  0.000  0.000  0.000  0.108
tot    0.000  0.000  0.432  0.000  0.000  0.000  0.000  0.000  0.000  0.432

band     5 # energy   -9.16365923 # occ.  2.00000000

ion      s     py     pz     px    dxy    dyz    dz2    dxz  x2-y2    tot
    1  0.000  0.197  0.000  0.000  0.000  0.000  0.000  0.000  0.000  0.197
    2  0.000  0.197  0.000  0.000  0.000  0.000  0.000  0.000  0.000  0.197
    3  0.000  0.197  0.000  0.000  0.000  0.000  0.000  0.000  0.000  0.197
    4  0.000  0.197  0.000  0.000  0.000  0.000  0.000  0.000  0.000  0.197
tot    0.000  0.787  0.000  0.000  0.000  0.000  0.000  0.000  0.000  0.787

band     6 # energy   -5.77647677 # occ.  2.00000000

ion      s     py     pz     px    dxy    dyz    dz2    dxz  x2-y2    tot
    1  0.000  0.000  0.000  0.207  0.000  0.000  0.000  0.000  0.000  0.207
    2  0.000  0.000  0.000  0.207  0.000  0.000  0.000  0.000  0.000  0.207
    3  0.000  0.000  0.000  0.207  0.000  0.000  0.000  0.000  0.000  0.207
    4  0.000  0.000  0.000  0.207  0.000  0.000  0.000  0.000  0.000  0.207
tot    0.000  0.000  0.000  0.827  0.000  0.000  0.000  0.000  0.000  0.827

band     7 # energy   -5.77387995 # occ.  2.00000000

ion      s     py     pz     px    dxy    dyz    dz2    dxz  x2-y2    tot
    1  0.000  0.207  0.000  0.000  0.000  0.000  0.000  0.000  0.000  0.207
    2  0.000  0.207  0.000  0.000  0.000  0.000  0.000  0.000  0.000  0.207
    3  0.000  0.207  0.000  0.000  0.000  0.000  0.000  0.000  0.000  0.207
    4  0.000  0.207  0.000  0.000  0.000  0.000  0.000  0.000  0.000  0.207
tot    0.000  0.826  0.000  0.000  0.000  0.000  0.000  0.000  0.000  0.826

band     8 # energy   -5.10854617 # occ.  2.00000000

ion      s     py     pz     px    dxy    dyz    dz2    dxz  x2-y2    tot
    1  0.000  0.000  0.128  0.000  0.000  0.000  0.000  0.000  0.000  0.128
    2  0.000  0.000  0.128  0.000  0.000  0.000  0.000  0.000  0.000  0.128
    3  0.000  0.000  0.128  0.000  0.000  0.000  0.000  0.000  0.000  0.128
    4  0.000  0.000  0.128  0.000  0.000  0.000  0.000  0.000  0.000  0.128
tot    0.000  0.000  0.512  0.000  0.000  0.000  0.000  0.000  0.000  0.512

band     9 # energy   -1.04496917 # occ.  0.00000000

ion      s     py     pz     px    dxy    dyz    dz2    dxz  x2-y2    tot
    1  0.000  0.000  0.113  0.000  0.000  0.000  0.000  0.000  0.000  0.113
    2  0.000  0.000  0.113  0.000  0.000  0.000  0.000  0.000  0.000  0.113
    3  0.000  0.000  0.113  0.000  0.000  0.000  0.000  0.000  0.000  0.113
    4  0.000  0.000  0.113  0.000  0.000  0.000  0.000  0.000  0.000  0.113
tot    0.000  0.000  0.450  0.000  0.000  0.000  0.000  0.000  0.000  0.450

band    10 # energy    0.51998185 # occ.  0.00000000

ion      s     py     pz     px    dxy    dyz    dz2    dxz  x2-y2    tot
    1  0.005  0.000  0.000  0.000  0.000  0.000  0.000  0.000  0.000  0.005
    2  0.005  0.000  0.000  0.000  0.000  0.000  0.000  0.000  0.000  0.005
    3  0.005  0.000  0.000  0.000  0.000  0.000  0.000  0.000  0.000  0.005
    4  0.005  0.000  0.000  0.000  0.000  0.000  0.000  0.000  0.000  0.005
tot    0.020  0.000  0.000  0.000  0.000  0.000  0.000  0.000  0.000  0.020

band    11 # energy    1.30960670 # occ.  0.00000000

ion      s     py     pz     px    dxy    dyz    dz2    dxz  x2-y2    tot
    1  0.000  0.000  0.006  0.000  0.000  0.000  0.000  0.000  0.000  0.006
    2  0.000  0.000  0.006  0.000  0.000  0.000  0.000  0.000  0.000  0.006
    3  0.000  0.000  0.006  0.000  0.000  0.000  0.000  0.000  0.000  0.006
    4  0.000  0.000  0.006  0.000  0.000  0.000  0.000  0.000  0.000  0.006
tot    0.000  0.000  0.022  0.000  0.000  0.000  0.000  0.000  0.000  0.022

band    12 # energy    1.64379377 # occ.  0.00000000

ion      s     py     pz     px    dxy    dyz    dz2    dxz  x2-y2    tot
    1  0.000  0.000  0.000  0.000  0.000  0.000  0.000  0.000  0.000  0.000
    2  0.000  0.000  0.000  0.000  0.000  0.000  0.000  0.000  0.000  0.000
    3  0.000  0.000  0.000  0.000  0.000  0.000  0.000  0.000  0.000  0.000
    4  0.000  0.000  0.000  0.000  0.000  0.000  0.000  0.000  0.000  0.000
tot    0.002  0.000  0.000  0.000  0.000  0.000  0.000  0.000  0.000  0.002

band    13 # energy    2.57145652 # occ.  0.00000000

ion      s     py     pz     px    dxy    dyz    dz2    dxz  x2-y2    tot
    1  0.000  0.000  0.004  0.000  0.000  0.000  0.000  0.000  0.000  0.004
    2  0.000  0.000  0.004  0.000  0.000  0.000  0.000  0.000  0.000  0.004
    3  0.000  0.000  0.004  0.000  0.000  0.000  0.000  0.000  0.000  0.004
    4  0.000  0.000  0.004  0.000  0.000  0.000  0.000  0.000  0.000  0.004
tot    0.000  0.000  0.017  0.000  0.000  0.000  0.000  0.000  0.000  0.017

band    14 # energy    3.01172943 # occ.  0.00000000

ion      s     py     pz     px    dxy    dyz    dz2    dxz  x2-y2    tot
    1  0.002  0.000  0.000  0.000  0.000  0.000  0.000  0.000  0.000  0.002
    2  0.002  0.000  0.000  0.000  0.000  0.000  0.000  0.000  0.000  0.002
    3  0.002  0.000  0.000  0.000  0.000  0.000  0.000  0.000  0.000  0.002
    4  0.002  0.000  0.000  0.000  0.000  0.000  0.000  0.000  0.000  0.002
tot    0.007  0.000  0.000  0.000  0.000  0.000  0.000  0.000  0.000  0.007

band    15 # energy    4.63524365 # occ.  0.00000000

ion      s     py     pz     px    dxy    dyz    dz2    dxz  x2-y2    tot
    1  0.092  0.000  0.000  0.020  0.000  0.000  0.000  0.000  0.000  0.113
    2  0.092  0.000  0.000  0.020  0.000  0.000  0.000  0.000  0.000  0.113
    3  0.092  0.000  0.000  0.020  0.000  0.000  0.000  0.000  0.000  0.113
    4  0.092  0.000  0.000  0.020  0.000  0.000  0.000  0.000  0.000  0.113
tot    0.370  0.000  0.000  0.081  0.000  0.000  0.000  0.000  0.000  0.451

band    16 # energy    4.69868814 # occ.  0.00000000

ion      s     py     pz     px    dxy    dyz    dz2    dxz  x2-y2    tot
    1  0.000  0.000  0.006  0.000  0.000  0.000  0.000  0.000  0.000  0.006
    2  0.000  0.000  0.006  0.000  0.000  0.000  0.000  0.000  0.000  0.006
    3  0.000  0.000  0.006  0.000  0.000  0.000  0.000  0.000  0.000  0.006
    4  0.000  0.000  0.006  0.000  0.000  0.000  0.000  0.000  0.000  0.006
tot    0.000  0.000  0.025  0.000  0.000  0.000  0.000  0.000  0.000  0.025

band    17 # energy    5.31434002 # occ.  0.00000000

ion      s     py     pz     px    dxy    dyz    dz2    dxz  x2-y2    tot
    1  0.003  0.000  0.000  0.000  0.000  0.000  0.000  0.000  0.000  0.003
    2  0.003  0.000  0.000  0.000  0.000  0.000  0.000  0.000  0.000  0.003
    3  0.003  0.000  0.000  0.000  0.000  0.000  0.000  0.000  0.000  0.003
    4  0.003  0.000  0.000  0.000  0.000  0.000  0.000  0.000  0.000  0.003
tot    0.011  0.000  0.000  0.000  0.000  0.000  0.000  0.000  0.000  0.011

band    18 # energy    5.61584026 # occ.  0.00000000

ion      s     py     pz     px    dxy    dyz    dz2    dxz  x2-y2    tot
    1  0.000  0.132  0.000  0.000  0.000  0.000  0.000  0.000  0.000  0.132
    2  0.000  0.132  0.000  0.000  0.000  0.000  0.000  0.000  0.000  0.132
    3  0.000  0.132  0.000  0.000  0.000  0.000  0.000  0.000  0.000  0.132
    4  0.000  0.132  0.000  0.000  0.000  0.000  0.000  0.000  0.000  0.132
tot    0.000  0.527  0.000  0.000  0.000  0.000  0.000  0.000  0.000  0.527

band    19 # energy    5.63334205 # occ.  0.00000000

ion      s     py     pz     px    dxy    dyz    dz2    dxz  x2-y2    tot
    1  0.000  0.000  0.000  0.131  0.000  0.000  0.000  0.000  0.000  0.132
    2  0.000  0.000  0.000  0.131  0.000  0.000  0.000  0.000  0.000  0.132
    3  0.000  0.000  0.000  0.131  0.000  0.000  0.000  0.000  0.000  0.132
    4  0.000  0.000  0.000  0.131  0.000  0.000  0.000  0.000  0.000  0.132
tot    0.000  0.000  0.000  0.526  0.000  0.000  0.000  0.000  0.000  0.526

band    20 # energy    7.64358785 # occ.  0.00000000

ion      s     py     pz     px    dxy    dyz    dz2    dxz  x2-y2    tot
    1  0.000  0.000  0.009  0.000  0.000  0.000  0.000  0.000  0.000  0.009
    2  0.000  0.000  0.009  0.000  0.000  0.000  0.000  0.000  0.000  0.009
    3  0.000  0.000  0.009  0.000  0.000  0.000  0.000  0.000  0.000  0.009
    4  0.000  0.000  0.009  0.000  0.000  0.000  0.000  0.000  0.000  0.009
tot    0.000  0.000  0.035  0.000  0.000  0.000  0.000  0.000  0.000  0.035

band    21 # energy    8.19277267 # occ.  0.00000000

ion      s     py     pz     px    dxy    dyz    dz2    dxz  x2-y2    tot
    1  0.002  0.000  0.000  0.007  0.000  0.000  0.000  0.000  0.000  0.009
    2  0.002  0.000  0.000  0.007  0.000  0.000  0.000  0.000  0.000  0.009
    3  0.002  0.000  0.000  0.007  0.000  0.000  0.000  0.000  0.000  0.009
    4  0.002  0.000  0.000  0.007  0.000  0.000  0.000  0.000  0.000  0.009
tot    0.008  0.000  0.000  0.027  0.000  0.000  0.000  0.000  0.000  0.035

band    22 # energy    8.44570389 # occ.  0.00000000

ion      s     py     pz     px    dxy    dyz    dz2    dxz  x2-y2    tot
    1  0.003  0.000  0.000  0.000  0.000  0.000  0.000  0.000  0.000  0.003
    2  0.003  0.000  0.000  0.000  0.000  0.000  0.000  0.000  0.000  0.003
    3  0.003  0.000  0.000  0.000  0.000  0.000  0.000  0.000  0.000  0.003
    4  0.003  0.000  0.000  0.000  0.000  0.000  0.000  0.000  0.000  0.003
tot    0.012  0.000  0.000  0.000  0.000  0.000  0.000  0.000  0.000  0.012

band    23 # energy    8.72902116 # occ.  0.00000000

ion      s     py     pz     px    dxy    dyz    dz2    dxz  x2-y2    tot
    1  0.000  0.000  0.196  0.000  0.000  0.000  0.000  0.000  0.000  0.196
    2  0.000  0.000  0.196  0.000  0.000  0.000  0.000  0.000  0.000  0.196
    3  0.000  0.000  0.196  0.000  0.000  0.000  0.000  0.000  0.000  0.196
    4  0.000  0.000  0.196  0.000  0.000  0.000  0.000  0.000  0.000  0.196
tot    0.000  0.000  0.783  0.000  0.000  0.000  0.000  0.000  0.000  0.783

band    24 # energy    8.74404618 # occ.  0.00000000

ion      s     py     pz     px    dxy    dyz    dz2    dxz  x2-y2    tot
    1  0.001  0.000  0.000  0.008  0.000  0.000  0.000  0.000  0.000  0.009
    2  0.001  0.000  0.000  0.008  0.000  0.000  0.000  0.000  0.000  0.009
    3  0.001  0.000  0.000  0.008  0.000  0.000  0.000  0.000  0.000  0.009
    4  0.001  0.000  0.000  0.008  0.000  0.000  0.000  0.000  0.000  0.009
tot    0.005  0.000  0.000  0.033  0.000  0.000  0.000  0.000  0.000  0.038

band    25 # energy    9.05213751 # occ.  0.00000000

ion      s     py     pz     px    dxy    dyz    dz2    dxz  x2-y2    tot
    1  0.000  0.000  0.014  0.000  0.000  0.000  0.000  0.000  0.000  0.014
    2  0.000  0.000  0.014  0.000  0.000  0.000  0.000  0.000  0.000  0.014
    3  0.000  0.000  0.014  0.000  0.000  0.000  0.000  0.000  0.000  0.014
    4  0.000  0.000  0.014  0.000  0.000  0.000  0.000  0.000  0.000  0.014
tot    0.000  0.000  0.056  0.000  0.000  0.000  0.000  0.000  0.000  0.056

band    26 # energy    9.59548229 # occ.  0.00000000

ion      s     py     pz     px    dxy    dyz    dz2    dxz  x2-y2    tot
    1  0.000  0.000  0.000  0.001  0.000  0.000  0.000  0.000  0.000  0.001
    2  0.000  0.000  0.000  0.001  0.000  0.000  0.000  0.000  0.000  0.001
    3  0.000  0.000  0.000  0.001  0.000  0.000  0.000  0.000  0.000  0.001
    4  0.000  0.000  0.000  0.001  0.000  0.000  0.000  0.000  0.000  0.001
tot    0.000  0.000  0.000  0.002  0.000  0.000  0.000  0.000  0.000  0.003

band    27 # energy    9.61163352 # occ.  0.00000000

ion      s     py     pz     px    dxy    dyz    dz2    dxz  x2-y2    tot
    1  0.000  0.000  0.011  0.000  0.000  0.000  0.000  0.000  0.000  0.011