<?xml version="1.0" encoding="ISO-8859-1"?>
<modeling>
 <generator>
  <i name="program" type="string">vasp </i>
  <i name="version" type="string">5.4.4.18Apr17-6-g9f103f2a35  </i>
  <i name="subversion" type="string">(build May 21 2018 15:16:00) complex            parallel </i>
  <i name="platform" type="string">GUN_wannier90_optcell </i>
  <i name="date" type="string">2019 03 25 </i>
  <i name="time" type="string">10:14:30 </i>
 </generator>
 <incar>
  <i type="string" name="SYSTEM"> C</i>
  <i type="int" name="ISTART">     0</i>
  <i type="string" name="PREC">a</i>
  <i type="string" name="ALGO">     N ! Normal     algorithm</i>
  <i type="logical" name="LDIAG"> T  </i>
  <i type="int" name="ICHARG">    11</i>
  <i type="int" name="NELM">  2000</i>
  <i type="int" name="NELMIN">     5</i>
  <i type="int" name="IBRION">    -1</i>
  <i name="EDIFF">      0.00000100</i>
  <i name="EDIFFG">     -0.01000000</i>
  <i type="int" name="NSW">     0</i>
  <i type="int" name="NBLOCK">     1</i>
  <i type="int" name="KBLOCK">     5</i>
  <i name="ENCUT">    400.00000000</i>
  <i type="int" name="NBANDS">    32</i>
  <i name="POTIM">      0.50000000</i>
  <i type="int" name="NEDOS">  3000</i>
  <i type="logical" name="LREAL"> F  </i>
  <i name="EMIN">    -15.00000000</i>
  <i name="EMAX">      5.00000000</i>
  <i type="int" name="ISMEAR">     0</i>
  <i name="SIGMA">      0.01000000</i>
  <i type="int" name="NWRITE">     1</i>
  <i type="logical" name="LCORR"> T  </i>
  <i type="logical" name="LWAVE"> F  </i>
  <i type="logical" name="LCHARG"> F  </i>
  <i type="int" name="LORBIT">    11</i>
  <v type="int" name="KPOINT_BSE">    -1     0     0     0</v>
  <i type="int" name="NELM">  2000</i>
 </incar>
 <structure name="primitive_cell" >
  <crystal>
   <varray name="basis" >
    <v>       2.13311020      -1.23259435       0.00000000 </v>
    <v>      -2.13311020      -1.23259435       0.00000000 </v>
    <v>       0.00000000       0.00000000     -20.00000000 </v>
   </varray>
   <i name="volume">    105.17038321 </i>
   <varray name="rec_basis" >
    <v>       0.23439952      -0.40564846       0.00000000 </v>
    <v>      -0.23439952      -0.40564846      -0.00000000 </v>
    <v>       0.00000000      -0.00000000      -0.05000000 </v>
   </varray>
  </crystal>
  <varray name="positions" >
   <v>       0.33334688      -0.33334688      -0.50000000 </v>
   <v>      -0.33334688       0.33334688      -0.50000000 </v>
  </varray>
 </structure>
 <varray name="primitive_index" >
  <v type="int" >        1 </v>
  <v type="int" >        2 </v>
 </varray>
 <kpoints>
  <generation param="listgenerated">
   <i name="divisions" type="int">      30 </i>
   <v>       0.00000000       0.00000000       0.00000000 </v>
   <v>       0.50000000       0.00000000       0.00000000 </v>
   <v>       0.50000000       0.50000000       0.00000000 </v>
   <v>       0.00000000       0.00000000       0.00000000 </v>
  </generation>
  <varray name="kpointlist" >
   <v>       0.00000000       0.00000000       0.00000000 </v>
   <v>       0.01724138       0.00000000       0.00000000 </v>
   <v>       0.03448276       0.00000000       0.00000000 </v>
   <v>       0.05172414       0.00000000       0.00000000 </v>
   <v>       0.06896552       0.00000000       0.00000000 </v>
   <v>       0.08620690       0.00000000       0.00000000 </v>
   <v>       0.10344828       0.00000000       0.00000000 </v>
   <v>       0.12068966       0.00000000       0.00000000 </v>
   <v>       0.13793103       0.00000000       0.00000000 </v>
   <v>       0.15517241       0.00000000       0.00000000 </v>
   <v>       0.17241379       0.00000000       0.00000000 </v>
   <v>       0.18965517       0.00000000       0.00000000 </v>
   <v>       0.20689655       0.00000000       0.00000000 </v>
   <v>       0.22413793       0.00000000       0.00000000 </v>
   <v>       0.24137931       0.00000000       0.00000000 </v>
   <v>       0.25862069       0.00000000       0.00000000 </v>
   <v>       0.27586207       0.00000000       0.00000000 </v>
   <v>       0.29310345       0.00000000       0.00000000 </v>
   <v>       0.31034483       0.00000000       0.00000000 </v>
   <v>       0.32758621       0.00000000       0.00000000 </v>
   <v>       0.34482759       0.00000000       0.00000000 </v>
   <v>       0.36206897       0.00000000       0.00000000 </v>
   <v>       0.37931034       0.00000000       0.00000000 </v>
   <v>       0.39655172       0.00000000       0.00000000 </v>
   <v>       0.41379310       0.00000000       0.00000000 </v>
   <v>       0.43103448       0.00000000       0.00000000 </v>
   <v>       0.44827586       0.00000000       0.00000000 </v>
   <v>       0.46551724       0.00000000       0.00000000 </v>
   <v>       0.48275862       0.00000000       0.00000000 </v>
   <v>       0.50000000       0.00000000       0.00000000 </v>
   <v>       0.50000000       0.00000000       0.00000000 </v>
   <v>       0.50000000       0.01724138       0.00000000 </v>
   <v>       0.50000000       0.03448276       0.00000000 </v>
   <v>       0.50000000       0.05172414       0.00000000 </v>
   <v>       0.50000000       0.06896552       0.00000000 </v>
   <v>       0.50000000       0.08620690       0.00000000 </v>
   <v>       0.50000000       0.10344828       0.00000000 </v>
   <v>       0.50000000       0.12068966       0.00000000 </v>
   <v>       0.50000000       0.13793103       0.00000000 </v>
   <v>       0.50000000       0.15517241       0.00000000 </v>
   <v>       0.50000000       0.17241379       0.00000000 </v>
   <v>       0.50000000       0.18965517       0.00000000 </v>
   <v>       0.50000000       0.20689655       0.00000000 </v>
   <v>       0.50000000       0.22413793       0.00000000 </v>
   <v>       0.50000000       0.24137931       0.00000000 </v>
   <v>       0.50000000       0.25862069       0.00000000 </v>
   <v>       0.50000000       0.27586207       0.00000000 </v>
   <v>       0.50000000       0.29310345       0.00000000 </v>
   <v>       0.50000000       0.31034483       0.00000000 </v>
   <v>       0.50000000       0.32758621       0.00000000 </v>
   <v>       0.50000000       0.34482759       0.00000000 </v>
   <v>       0.50000000       0.36206897       0.00000000 </v>
   <v>       0.50000000       0.37931034       0.00000000 </v>
   <v>       0.50000000       0.39655172       0.00000000 </v>
   <v>       0.50000000       0.41379310       0.00000000 </v>
   <v>       0.50000000       0.43103448       0.00000000 </v>
   <v>       0.50000000       0.44827586       0.00000000 </v>
   <v>       0.50000000       0.46551724       0.00000000 </v>
   <v>       0.50000000       0.48275862       0.00000000 </v>
   <v>       0.50000000       0.50000000       0.00000000 </v>
   <v>       0.50000000       0.50000000       0.00000000 </v>
   <v>       0.48275862       0.48275862       0.00000000 </v>
   <v>       0.46551724       0.46551724       0.00000000 </v>
   <v>       0.44827586       0.44827586       0.00000000 </v>
   <v>       0.43103448       0.43103448       0.00000000 </v>
   <v>       0.41379310       0.41379310       0.00000000 </v>
   <v>       0.39655172       0.39655172       0.00000000 </v>
   <v>       0.37931034       0.37931034       0.00000000 </v>
   <v>       0.36206897       0.36206897       0.00000000 </v>
   <v>       0.34482759       0.34482759       0.00000000 </v>
   <v>       0.32758621       0.32758621       0.00000000 </v>
   <v>       0.31034483       0.31034483       0.00000000 </v>
   <v>       0.29310345       0.29310345       0.00000000 </v>
   <v>       0.27586207       0.27586207       0.00000000 </v>
   <v>       0.25862069       0.25862069       0.00000000 </v>
   <v>       0.24137931       0.24137931       0.00000000 </v>
   <v>       0.22413793       0.22413793       0.00000000 </v>
   <v>       0.20689655       0.20689655       0.00000000 </v>
   <v>       0.18965517       0.18965517       0.00000000 </v>
   <v>       0.17241379       0.17241379       0.00000000 </v>
   <v>       0.15517241       0.15517241       0.00000000 </v>
   <v>       0.13793103       0.13793103       0.00000000 </v>
   <v>       0.12068966       0.12068966       0.00000000 </v>
   <v>       0.10344828       0.10344828       0.00000000 </v>
   <v>       0.08620690       0.08620690       0.00000000 </v>
   <v>       0.06896552       0.06896552       0.00000000 </v>
   <v>       0.05172414       0.05172414       0.00000000 </v>
   <v>       0.03448276       0.03448276       0.00000000 </v>
   <v>       0.01724138       0.01724138       0.00000000 </v>
   <v>       0.00000000       0.00000000       0.00000000 </v>
  </varray>
  <varray name="weights" >
   <v>       0.01111111 </v>
   <v>       0.01111111 </v>
   <v>       0.01111111 </v>
   <v>       0.01111111 </v>
   <v>       0.01111111 </v>
   <v>       0.01111111 </v>
   <v>       0.01111111 </v>
   <v>       0.01111111 </v>
   <v>       0.01111111 </v>
   <v>       0.01111111 </v>
   <v>       0.01111111 </v>
   <v>       0.01111111 </v>
   <v>       0.01111111 </v>
   <v>       0.01111111 </v>
   <v>       0.01111111 </v>
   <v>       0.01111111 </v>
   <v>       0.01111111 </v>
   <v>       0.01111111 </v>
   <v>       0.01111111 </v>
   <v>       0.01111111 </v>
   <v>       0.01111111 </v>
   <v>       0.01111111 </v>
   <v>       0.01111111 </v>
   <v>       0.01111111 </v>
   <v>       0.01111111 </v>
   <v>       0.01111111 </v>
   <v>       0.01111111 </v>
   <v>       0.01111111 </v>
   <v>       0.01111111 </v>
   <v>       0.01111111 </v>
   <v>       0.01111111 </v>
   <v>       0.01111111 </v>
   <v>       0.01111111 </v>
   <v>       0.01111111 </v>
   <v>       0.01111111 </v>
   <v>       0.01111111 </v>
   <v>       0.01111111 </v>
   <v>       0.01111111 </v>
   <v>       0.01111111 </v>
   <v>       0.01111111 </v>
   <v>       0.01111111 </v>
   <v>       0.01111111 </v>
   <v>       0.01111111 </v>
   <v>       0.01111111 </v>
   <v>       0.01111111 </v>
   <v>       0.01111111 </v>
   <v>       0.01111111 </v>
   <v>       0.01111111 </v>
   <v>       0.01111111 </v>
   <v>       0.01111111 </v>
   <v>       0.01111111 </v>
   <v>       0.01111111 </v>
   <v>       0.01111111 </v>
   <v>       0.01111111 </v>
   <v>       0.01111111 </v>
   <v>       0.01111111 </v>
   <v>       0.01111111 </v>
   <v>       0.01111111 </v>
   <v>       0.01111111 </v>
   <v>       0.01111111 </v>
   <v>       0.01111111 </v>
   <v>       0.01111111 </v>
   <v>       0.01111111 </v>
   <v>       0.01111111 </v>
   <v>       0.01111111 </v>
   <v>       0.01111111 </v>
   <v>       0.01111111 </v>
   <v>       0.01111111 </v>
   <v>       0.01111111 </v>
   <v>       0.01111111 </v>
   <v>       0.01111111 </v>
   <v>       0.01111111 </v>
   <v>       0.01111111 </v>
   <v>       0.01111111 </v>
   <v>       0.01111111 </v>
   <v>       0.01111111 </v>
   <v>       0.01111111 </v>
   <v>       0.01111111 </v>
   <v>       0.01111111 </v>
   <v>       0.01111111 </v>
   <v>       0.01111111 </v>
   <v>       0.01111111 </v>
   <v>       0.01111111 </v>
   <v>       0.01111111 </v>
   <v>       0.01111111 </v>
   <v>       0.01111111 </v>
   <v>       0.01111111 </v>
   <v>       0.01111111 </v>
   <v>       0.01111111 </v>
   <v>       0.01111111 </v>
  </varray>
 </kpoints>
 <parameters>
  <separator name="general" >
   <i type="string" name="SYSTEM">C</i>
   <i type="logical" name="LCOMPAT"> F  </i>
  </separator>
  <separator name="electronic" >
   <i type="string" name="PREC">a</i>
   <i name="ENMAX">    400.00000000</i>
   <i name="ENAUG">    644.87300000</i>
   <i name="EDIFF">      0.00000100</i>
   <i type="int" name="IALGO">    38</i>
   <i type="int" name="IWAVPR">    10</i>
   <i type="int" name="NBANDS">    32</i>
   <i name="NELECT">     16.00000000</i>
   <i type="int" name="TURBO">     0</i>
   <i type="int" name="IRESTART">     0</i>
   <i type="int" name="NREBOOT">     0</i>
   <i type="int" name="NMIN">     0</i>
   <i name="EREF">      0.00000000</i>
   <separator name="electronic smearing" >
    <i type="int" name="ISMEAR">     0</i>
    <i name="SIGMA">      0.01000000</i>
    <i name="KSPACING">      0.50000000</i>
    <i type="logical" name="KGAMMA"> T  </i>
   </separator>
   <separator name="electronic projectors" >
    <i type="logical" name="LREAL"> F  </i>
    <v name="ROPT">      0.00000000</v>
    <i type="int" name="LMAXPAW">  -100</i>
    <i type="int" name="LMAXMIX">     2</i>
    <i type="logical" name="NLSPLINE"> F  </i>
   </separator>
   <separator name="electronic startup" >
    <i type="int" name="ISTART">     0</i>
    <i type="int" name="ICHARG">    11</i>
    <i type="int" name="INIWAV">     1</i>
   </separator>
   <separator name="electronic spin" >
    <i type="int" name="ISPIN">     1</i>
    <i type="logical" name="LNONCOLLINEAR"> F  </i>
    <v name="MAGMOM">      1.00000000      1.00000000      1.00000000      1.00000000</v>
    <i name="NUPDOWN">     -1.00000000</i>
    <i type="logical" name="LSORBIT"> F  </i>
    <v name="SAXIS">      0.00000000      0.00000000      1.00000000</v>
    <i type="logical" name="LSPIRAL"> F  </i>
    <v name="QSPIRAL">      0.00000000      0.00000000      0.00000000</v>
    <i type="logical" name="LZEROZ"> F  </i>
   </separator>
   <separator name="electronic exchange-correlation" >
    <i type="logical" name="LASPH"> F  </i>
    <i type="logical" name="LMETAGGA"> F  </i>
   </separator>
   <separator name="electronic convergence" >
    <i type="int" name="NELM">  2000</i>
    <i type="int" name="NELMDL">    -5</i>
    <i type="int" name="NELMIN">     5</i>
    <i name="ENINI">    400.00000000</i>
    <separator name="electronic convergence detail" >
     <i type="logical" name="LDIAG"> T  </i>
     <i type="logical" name="LSUBROT"> F  </i>
     <i name="WEIMIN">      0.00000000</i>
     <i name="EBREAK">      0.00000001</i>
     <i name="DEPER">      0.30000000</i>
     <i type="int" name="NRMM">     4</i>
     <i name="TIME">      0.40000000</i>
    </separator>
   </separator>
   <separator name="electronic mixer" >
    <i name="AMIX">      0.40000000</i>
    <i name="BMIX">      1.00000000</i>
    <i name="AMIN">      0.10000000</i>
    <i name="AMIX_MAG">      1.60000000</i>
    <i name="BMIX_MAG">      1.00000000</i>
    <separator name="electronic mixer details" >
     <i type="int" name="IMIX">     4</i>
     <i type="logical" name="MIXFIRST"> F  </i>
     <i type="int" name="MAXMIX">   -45</i>
     <i name="WC">    100.00000000</i>
     <i type="int" name="INIMIX">     1</i>
     <i type="int" name="MIXPRE">     1</i>
     <i type="int" name="MREMOVE">     5</i>
    </separator>
   </separator>
   <separator name="electronic dipolcorrection" >
    <i type="logical" name="LDIPOL"> F  </i>
    <i type="logical" name="LMONO"> F  </i>
    <i type="int" name="IDIPOL">     0</i>
    <i name="EPSILON">      1.00000000</i>
    <v name="DIPOL">   -100.00000000   -100.00000000   -100.00000000</v>
    <i name="EFIELD">      0.00000000</i>
   </separator>
  </separator>
  <separator name="grids" >
   <i type="int" name="NGX">    28</i>
   <i type="int" name="NGY">    16</i>
   <i type="int" name="NGZ">   140</i>
   <i type="int" name="NGXF">    56</i>
   <i type="int" name="NGYF">    32</i>
   <i type="int" name="NGZF">   280</i>
   <i type="logical" name="ADDGRID"> F  </i>
  </separator>
  <separator name="ionic" >
   <i type="int" name="NSW">     0</i>
   <i type="int" name="IBRION">    -1</i>
   <i type="int" name="MDALGO">     0</i>
   <i type="int" name="ISIF">     2</i>
   <i name="PSTRESS">      0.00000000</i>
   <i name="EDIFFG">     -0.01000000</i>
   <i type="int" name="NFREE">     0</i>
   <i name="POTIM">      0.50000000</i>
   <i name="SMASS">     -3.00000000</i>
   <i name="SCALEE">      1.00000000</i>
  </separator>
  <separator name="ionic md" >
   <i name="TEBEG">      0.00010000</i>
   <i name="TEEND">      0.00010000</i>
   <i type="int" name="NBLOCK">     1</i>
   <i type="int" name="KBLOCK">     1</i>
   <i type="int" name="NPACO">   256</i>
   <i name="APACO">     16.00000000</i>
  </separator>
  <separator name="symmetry" >
   <i type="int" name="ISYM">     2</i>
   <i name="SYMPREC">      0.00001000</i>
  </separator>
  <separator name="dos" >
   <i type="int" name="LORBIT">    11</i>
   <v name="RWIGS">     -1.00000000</v>
   <i type="int" name="NEDOS">  3000</i>
   <i name="EMIN">    -15.00000000</i>
   <i name="EMAX">      5.00000000</i>
   <i name="EFERMI">      0.00000000</i>
  </separator>
  <separator name="writing" >
   <i type="int" name="NWRITE">     1</i>
   <i type="logical" name="LWAVE"> F  </i>
   <i type="logical" name="LDOWNSAMPLE"> F  </i>
   <i type="logical" name="LCHARG"> F  </i>
   <i type="logical" name="LPARD"> F  </i>
   <i type="logical" name="LVTOT"> F  </i>
   <i type="logical" name="LVHAR"> F  </i>
   <i type="logical" name="LELF"> F  </i>
   <i type="logical" name="LOPTICS"> F  </i>
   <v name="STM">      0.00000000      0.00000000      0.00000000      0.00000000      0.00000000      0.00000000      0.00000000</v>
  </separator>
  <separator name="performance" >
   <i type="int" name="NPAR">     2</i>
   <i type="int" name="NSIM">     4</i>
   <i type="int" name="NBLK">    -1</i>
   <i type="logical" name="LPLANE"> T  </i>
   <i type="logical" name="LSCALAPACK"> T  </i>
   <i type="logical" name="LSCAAWARE"> F  </i>
   <i type="logical" name="LSCALU"> F  </i>
   <i type="logical" name="LASYNC"> F  </i>
   <i type="logical" name="LORBITALREAL"> F  </i>
  </separator>
  <separator name="miscellaneous" >
   <i type="int" name="IDIOT">     3</i>
   <i type="int" name="ISPECIAL">     0</i>
   <i type="logical" name="LMUSIC"> F  </i>
   <v name="POMASS">     12.01100000</v>
   <v name="DARWINR">      0.00000000</v>
   <v name="DARWINV">      1.00000000</v>
   <i type="logical" name="LCORR"> T  </i>
  </separator>
  <i type="logical" name="GGA_COMPAT"> T  </i>
  <i type="logical" name="LBERRY"> F  </i>
  <i type="int" name="ICORELEVEL">     0</i>
  <i type="logical" name="LDAU"> F  </i>
  <i type="int" name="I_CONSTRAINED_M">     0</i>
  <separator name="electronic exchange-correlation" >
   <i type="string" name="GGA">--</i>
   <i type="int" name="VOSKOWN">     0</i>
   <i type="logical" name="LHFCALC"> F  </i>
   <i type="string" name="PRECFOCK"></i>
   <i type="logical" name="LSYMGRAD"> F  </i>
   <i type="logical" name="LHFONE"> F  </i>
   <i type="logical" name="LRHFCALC"> F  </i>
   <i type="logical" name="LTHOMAS"> F  </i>
   <i type="logical" name="LMODELHF"> F  </i>
   <i name="ENCUT4O">     -1.00000000</i>
   <i type="int" name="EXXOEP">     0</i>
   <i type="int" name="FOURORBIT">     0</i>
   <i name="AEXX">      0.00000000</i>
   <i name="HFALPHA">      0.00000000</i>
   <i name="MCALPHA">      0.00000000</i>
   <i name="ALDAX">      1.00000000</i>
   <i name="AGGAX">      1.00000000</i>
   <i name="ALDAC">      1.00000000</i>
   <i name="AGGAC">      1.00000000</i>
   <i type="int" name="NKREDX">     1</i>
   <i type="int" name="NKREDY">     1</i>
   <i type="int" name="NKREDZ">     1</i>
   <i type="logical" name="SHIFTRED"> F  </i>
   <i type="logical" name="ODDONLY"> F  </i>
   <i type="logical" name="EVENONLY"> F  </i>
   <i type="int" name="LMAXFOCK">     0</i>
   <i type="int" name="NMAXFOCKAE">     0</i>
   <i type="logical" name="LFOCKAEDFT"> F  </i>
   <i name="HFSCREEN">      0.00000000</i>
   <i name="HFSCREENC">      0.00000000</i>
   <i type="int" name="NBANDSGWLOW">     0</i>
  </separator>
  <separator name="vdW DFT" >
   <i type="logical" name="LUSE_VDW"> F  </i>
   <i name="Zab_VDW">     -0.84910000</i>
   <i name="PARAM1">      0.12340000</i>
   <i name="PARAM2">      1.00000000</i>
   <i name="PARAM3">      0.00000000</i>
  </separator>
  <separator name="model GW" >
   <i type="int" name="MODEL_GW">     0</i>
   <i name="MODEL_EPS0">     31.55111497</i>
   <i name="MODEL_ALPHA">      1.00000000</i>
  </separator>
  <separator name="linear response parameters" >
   <i type="logical" name="LEPSILON"> F  </i>
   <i type="logical" name="LRPA"> F  </i>
   <i type="logical" name="LNABLA"> F  </i>
   <i type="logical" name="LVEL"> F  </i>
   <i type="int" name="KINTER">     0</i>
   <i name="CSHIFT">      0.10000000</i>
   <i name="OMEGAMAX">     -1.00000000</i>
   <i name="DEG_THRESHOLD">      0.00200000</i>
   <i name="RTIME">     -0.10000000</i>
   <i name="WPLASMAI">      0.00000000</i>
   <v name="DFIELD">      0.00000000      0.00000000      0.00000000</v>
   <v name="WPLASMA">      0.00000000      0.00000000      0.00000000      0.00000000      0.00000000      0.00000000      0.00000000      0.00000000      0.00000000</v>
  </separator>
  <separator name="orbital magnetization" >
   <i type="logical" name="NUCIND"> F  </i>
   <v name="MAGPOS">      0.00000000      0.00000000      0.00000000</v>
   <i type="logical" name="LNICSALL"> T  </i>
   <i type="logical" name="ORBITALMAG"> F  </i>
   <i type="logical" name="LMAGBLOCH"> F  </i>
   <i type="logical" name="LCHIMAG"> F  </i>
   <i type="logical" name="LGAUGE"> T  </i>
   <i type="int" name="MAGATOM">     0</i>
   <v name="MAGDIPOL">      0.00000000      0.00000000      0.00000000</v>
   <v name="AVECCONST">      0.00000000      0.00000000      0.00000000</v>
  </separator>
  <separator name="response functions" >
   <i type="logical" name="LADDER"> F  </i>
   <i type="logical" name="LRPAFORCE"> F  </i>
   <i type="logical" name="LFXC"> F  </i>
   <i type="logical" name="LHARTREE"> T  </i>
   <i type="int" name="IBSE">     0</i>
   <v type="int" name="KPOINT">    -1     0     0     0</v>
   <i type="logical" name="LTCTE"> F  </i>
   <i type="logical" name="LTETE"> F  </i>
   <i type="logical" name="LTRIPLET"> F  </i>
   <i type="logical" name="LFXCEPS"> F  </i>
   <i type="logical" name="LFXHEG"> F  </i>
   <i type="int" name="NATURALO">     2</i>
   <i type="logical" name="L2ORDER"> F  </i>
   <i type="logical" name="LMP2LT"> F  </i>
   <i type="logical" name="LUSEW"> F  </i>
   <i name="ENCUTGW">     -2.00000000</i>
   <i name="ENCUTGWSOFT">     -2.00000000</i>
   <i name="ENCUTLF">     -1.00000000</i>
   <i type="int" name="LMAXMP2">    -1</i>
   <i name="SCISSOR">      0.00000000</i>
   <i type="int" name="NOMEGA">     0</i>
   <i type="int" name="NOMEGAR">     0</i>
   <i type="int" name="NBANDSGW">    -1</i>
   <i type="int" name="NBANDSO">    -1</i>
   <i type="int" name="NBANDSV">    -1</i>
   <i type="int" name="NELM">  2000</i>
   <i type="int" name="NELMHF">     1</i>
   <i type="int" name="DIM">     3</i>
   <i type="int" name="ANTIRES">     0</i>
   <i name="OMEGAMAX">    -30.00000000</i>
   <i name="OMEGAMIN">    -30.00000000</i>
   <i name="OMEGATL">   -200.00000000</i>
   <i type="int" name="OMEGAGRID">   140</i>
   <i name="CSHIFT">     -0.10000000</i>
   <i type="logical" name="SELFENERGY"> F  </i>
   <i type="logical" name="LSPECTRAL"> F  </i>
   <i type="logical" name="LSPECTRALGW"> F  </i>
   <i type="logical" name="LSINGLES"> F  </i>
   <i type="logical" name="LFERMIGW"> F  </i>
   <i type="logical" name="ODDONLYGW"> F  </i>
   <i type="logical" name="EVENONLYGW"> F  </i>
   <i type="int" name="NKREDLFX">     1</i>
   <i type="int" name="NKREDLFY">     1</i>
   <i type="int" name="NKREDLFZ">     1</i>
   <i type="int" name="MAXMEM">  2800</i>
   <i type="int" name="TELESCOPE">     0</i>
   <i type="int" name="TAUPAR">     1</i>
   <i type="int" name="OMEGAPAR">    -1</i>
   <i name="LAMBDA">      1.00000000</i>
  </separator>
  <separator name="External order field" >
   <i name="OFIELD_KAPPA">      0.00000000</i>
   <v name="OFIELD_K">      0.00000000      0.00000000      0.00000000</v>
   <i name="OFIELD_Q6_NEAR">      0.00000000</i>
   <i name="OFIELD_Q6_FAR">      0.00000000</i>
   <i name="OFIELD_A">      0.00000000</i>
  </separator>
 </parameters>
 <atominfo>
  <atoms>       4 </atoms>
  <types>       1 </types>
  <array name="atoms" >
   <dimension dim="1">ion</dimension>
   <field type="string">element</field>
   <field type="int">atomtype</field>
   <set>
    <rc><c>C </c><c>   1</c></rc>
    <rc><c>C </c><c>   1</c></rc>
    <rc><c>C </c><c>   1</c></rc>
    <rc><c>C </c><c>   1</c></rc>
   </set>
  </array>
  <array name="atomtypes" >
   <dimension dim="1">type</dimension>
   <field type="int">atomspertype</field>
   <field type="string">element</field>
   <field>mass</field>
   <field>valence</field>
   <field type="string">pseudopotential</field>
   <set>
    <rc><c>   4</c><c>C </c><c>     12.01100000</c><c>      4.00000000</c><c>  PAW_PBE C 08Apr2002                   </c></rc>
   </set>
  </array>
 </atominfo>
 <structure name="initialpos" >
  <crystal>
   <varray name="basis" >
    <v>       4.26622041       0.00000000       0.00000000 </v>
    <v>       0.00000000       2.46518870       0.00000000 </v>
    <v>       0.00000000       0.00000000      20.00000000 </v>
   </varray>
   <i name="volume">    210.34076648 </i>
   <varray name="rec_basis" >
    <v>       0.23439952       0.00000000       0.00000000 </v>
    <v>       0.00000000       0.40564846       0.00000000 </v>
    <v>       0.00000000       0.00000000       0.05000000 </v>
   </varray>
  </crystal>
  <varray name="positions" >
   <v>       0.33334688       0.00000000       0.50000000 </v>
   <v>       0.66665312       0.00000000       0.50000000 </v>
   <v>       0.16665312       0.50000000       0.50000000 </v>
   <v>       0.83334688       0.50000000       0.50000000 </v>
  </varray>
 </structure>
 <calculation>
  <scstep>
   <time name="dav">   21.67   21.89</time>
   <time name="total">   21.82   22.04</time>
   <energy>
    <i name="alphaZ">      6.24865773 </i>
    <i name="ewald">   2594.25031041 </i>
    <i name="hartreedc">  -3088.11017670 </i>
    <i name="XCdc">     55.11388235 </i>
    <i name="pawpsdc">   1719.67781561 </i>
    <i name="pawaedc">  -1722.38415485 </i>
    <i name="eentropy">     -0.00023240 </i>
    <i name="bandstr">    -83.04465581 </i>
    <i name="atom">    588.50889549 </i>
    <i name="e_fr_energy">     70.26034181 </i>
    <i name="e_wo_entrp">     70.26057422 </i>
    <i name="e_0_energy">     70.26045801 </i>
   </energy>
  </scstep>
  <scstep>
   <time name="dav">   28.32   28.83</time>
   <time name="total">   28.32   28.83</time>
   <energy>
    <i name="e_fr_energy">    -25.61539109 </i>
    <i name="e_wo_entrp">    -25.61539109 </i>
    <i name="e_0_energy">    -25.61539109 </i>
   </energy>
  </scstep>
  <scstep>
   <time name="dav">   27.39   27.50</time>
   <time name="total">   27.39   27.50</time>
   <energy>
    <i name="e_fr_energy">    -35.51121907 </i>
    <i name="e_wo_entrp">    -35.51121907 </i>
    <i name="e_0_energy">    -35.51121907 </i>
   </energy>
  </scstep>
  <scstep>
   <time name="dav">   17.81   17.89</time>
   <time name="total">   17.81   17.89</time>
   <energy>
    <i name="e_fr_energy">    -35.63254649 </i>
    <i name="e_wo_entrp">    -35.63254649 </i>
    <i name="e_0_energy">    -35.63254649 </i>
   </energy>
  </scstep>
  <scstep>
   <time name="dav">   18.89   18.94</time>
   <time name="total">   18.89   18.94</time>
   <energy>
    <i name="e_fr_energy">    -35.63475915 </i>
    <i name="e_wo_entrp">    -35.63475915 </i>
    <i name="e_0_energy">    -35.63475915 </i>
   </energy>
  </scstep>
  <scstep>
   <time name="dav">   18.89   18.93</time>
   <time name="total">   18.89   18.93</time>
   <energy>
    <i name="e_fr_energy">    -35.63482184 </i>
    <i name="e_wo_entrp">    -35.63482184 </i>
    <i name="e_0_energy">    -35.63482184 </i>
   </energy>
  </scstep>
  <scstep>
   <time name="dav">   19.68   19.73</time>
   <time name="total">   19.69   19.73</time>
   <energy>
    <i name="e_fr_energy">    -35.63482330 </i>
    <i name="e_wo_entrp">    -35.63482330 </i>
    <i name="e_0_energy">    -35.63482330 </i>
   </energy>
  </scstep>
  <scstep>
   <time name="dav">   16.67   16.71</time>
   <time name="total">   16.67   16.72</time>
   <energy>
    <i name="alphaZ">      6.24865773 </i>
    <i name="ewald">   2594.25031041 </i>
    <i name="hartreedc">  -3088.11017670 </i>
    <i name="XCdc">     55.11388235 </i>
    <i name="pawpsdc">   1719.67781561 </i>
    <i name="pawaedc">  -1722.38415485 </i>
    <i name="eentropy">     -0.00000000 </i>
    <i name="bandstr">   -188.94005339 </i>
    <i name="atom">    588.50889549 </i>
    <i name="e_fr_energy">    -35.63482337 </i>
    <i name="e_wo_entrp">    -35.63482337 </i>
    <i name="e_0_energy">    -35.63482337 </i>
   </energy>
  </scstep>
  <structure>
   <crystal>
    <varray name="basis" >
     <v>       4.26622041       0.00000000       0.00000000 </v>
     <v>       0.00000000       2.46518870       0.00000000 </v>
     <v>       0.00000000       0.00000000      20.00000000 </v>
    </varray>
    <i name="volume">    210.34076648 </i>
    <varray name="rec_basis" >
     <v>       0.23439952       0.00000000       0.00000000 </v>
     <v>       0.00000000       0.40564846       0.00000000 </v>
     <v>       0.00000000       0.00000000       0.05000000 </v>
    </varray>
   </crystal>
   <varray name="positions" >
    <v>       0.33334688       0.00000000       0.50000000 </v>
    <v>       0.66665312       0.00000000       0.50000000 </v>
    <v>       0.16665312       0.50000000       0.50000000 </v>
    <v>       0.83334688       0.50000000       0.50000000 </v>
   </varray>
  </structure>
  <varray name="forces" >
   <v>      -1.95890078      -0.00000000       0.00000000 </v>
   <v>       1.95890078       0.00000000      -0.00000000 </v>
   <v>       1.95890078       0.00000000       0.00000000 </v>
   <v>      -1.95890078       0.00000000       0.00000000 </v>
  </varray>
  <varray name="stress" >
   <v>      38.19040008       0.00000000       0.00000000 </v>
   <v>       0.00000000     -35.50948195       0.00000000 </v>
   <v>       0.00000000       0.00000000       7.95834922 </v>
  </varray>
  <energy>
   <i name="e_fr_energy">    -35.63482337 </i>
   <i name="e_wo_entrp">    -35.63482337 </i>
   <i name="e_0_energy">     -0.00000000 </i>
  </energy>
  <time name="totalsc">  177.45  178.57</time>
  <eigenvalues>
   <array>
    <dimension dim="1">band</dimension>
    <dimension dim="2">kpoint</dimension>
    <dimension dim="3">spin</dimension>
    <field>eigene</field>
    <field>occ</field>
    <set>
     <set comment="spin 1">
      <set comment="kpoint 1">
       <r>  -22.2788    1.0000 </r>
       <r>  -17.0187    1.0000 </r>
       <r>  -15.9902    1.0000 </r>
       <r>  -10.3742    1.0000 </r>
       <r>   -9.1653    1.0000 </r>
       <r>   -5.7700    1.0000 </r>
       <r>   -5.7691    1.0000 </r>
       <r>   -5.0968    1.0000 </r>
       <r>   -1.0594    0.0000 </r>
       <r>    0.5176    0.0000 </r>
       <r>    1.3072    0.0000 </r>
       <r>    1.6413    0.0000 </r>
       <r>    2.5690    0.0000 </r>
       <r>    3.0093    0.0000 </r>
       <r>    4.6344    0.0000 </r>
       <r>    4.6963    0.0000 </r>
       <r>    5.3121    0.0000 </r>
       <r>    5.6075    0.0000 </r>
       <r>    5.6306    0.0000 </r>
       <r>    7.6412    0.0000 </r>
       <r>    8.3907    0.0000 </r>
       <r>    8.4433    0.0000 </r>
       <r>    8.5430    0.0000 </r>
       <r>    8.7353    0.0000 </r>
       <r>    9.2319    0.0000 </r>
       <r>    9.4326    0.0000 </r>
       <r>    9.8000    0.0000 </r>
       <r>    9.8714    0.0000 </r>
       <r>    9.8812    0.0000 </r>
       <r>   10.5637    0.0000 </r>
       <r>   10.7427    0.0000 </r>
       <r>   11.1198    0.0000 </r>
      </set>
      <set comment="kpoint 2">
       <r>  -22.2771    1.0000 </r>
       <r>  -17.0516    1.0000 </r>
       <r>  -15.9547    1.0000 </r>
       <r>  -10.3721    1.0000 </r>
       <r>   -9.1637    1.0000 </r>
       <r>   -5.7765    1.0000 </r>
       <r>   -5.7739    1.0000 </r>
       <r>   -5.1085    1.0000 </r>
       <r>   -1.0450    0.0000 </r>
       <r>    0.5200    0.0000 </r>
       <r>    1.3096    0.0000 </r>
       <r>    1.6438    0.0000 </r>
       <r>    2.5715    0.0000 </r>
       <r>    3.0117    0.0000 </r>
       <r>    4.6352    0.0000 </r>
       <r>    4.6987    0.0000 </r>
       <r>    5.3143    0.0000 </r>
       <r>    5.6158    0.0000 </r>
       <r>    5.6333    0.0000 </r>
       <r>    7.6436    0.0000 </r>
       <r>    8.1928    0.0000 </r>
       <r>    8.4457    0.0000 </r>
       <r>    8.7290    0.0000 </r>
       <r>    8.7440    0.0000 </r>
       <r>    9.0521    0.0000 </r>
       <r>    9.5955    0.0000 </r>
       <r>    9.6116    0.0000 </r>
       <r>    9.8031    0.0000 </r>
       <r>   10.1619    0.0000 </r>
       <r>   10.3769    0.0000 </r>
       <r>   10.8618    0.0000 </r>
       <r>   10.9340    0.0000 </r>
      </set>
      <set comment="kpoint 3">
       <r>  -22.2718    1.0000 </r>
       <r>  -17.1393    1.0000 </r>
       <r>  -15.8593    1.0000 </r>
       <r>  -10.3657    1.0000 </r>
       <r>   -9.1585    1.0000 </r>
       <r>   -5.7979    1.0000 </r>
       <r>   -5.7855    1.0000 </r>
       <r>   -5.1432    1.0000 </r>
       <r>   -1.0021    0.0000 </r>
       <r>    0.5272    0.0000 </r>
       <r>    1.3169    0.0000 </r>
       <r>    1.6511    0.0000 </r>
       <r>    2.5787    0.0000 </r>
       <r>    3.0190    0.0000 </r>
       <r>    4.6379    0.0000 </r>
       <r>    4.7059    0.0000 </r>
       <r>    5.3210    0.0000 </r>
       <r>    5.6389    0.0000 </r>
       <r>    5.6397    0.0000 </r>
       <r>    7.6507    0.0000 </r>
       <r>    7.9382    0.0000 </r>
       <r>    8.4530    0.0000 </r>
       <r>    8.7116    0.0000 </r>
       <r>    8.8015    0.0000 </r>
       <r>    9.0077    0.0000 </r>
       <r>    9.3201    0.0000 </r>
       <r>    9.8126    0.0000 </r>
       <r>    9.8450    0.0000 </r>
       <r>   10.1451    0.0000 </r>
       <r>   10.4519    0.0000 </r>
       <r>   10.5931    0.0000 </r>
       <r>   11.1914    0.0000 </r>
      </set>
      <set comment="kpoint 4">
       <r>  -22.2630    1.0000 </r>
       <r>  -17.2614    1.0000 </r>
       <r>  -15.7240    1.0000 </r>
       <r>  -10.3551    1.0000 </r>
       <r>   -9.1497    1.0000 </r>
       <r>   -5.8341    1.0000 </r>
       <r>   -5.8046    1.0000 </r>
       <r>   -5.1992    1.0000 </r>
       <r>   -0.9322    0.0000 </r>
       <r>    0.5391    0.0000 </r>
       <r>    1.3290    0.0000 </r>
       <r>    1.6634    0.0000 </r>
       <r>    2.5909    0.0000 </r>
       <r>    3.0311    0.0000 </r>
       <r>    4.6422    0.0000 </r>
       <r>    4.7179    0.0000 </r>
       <r>    5.3321    0.0000 </r>
       <r>    5.6455    0.0000 </r>
       <r>    5.6789    0.0000 </r>
       <r>    7.6625    0.0000 </r>
       <r>    7.6840    0.0000 </r>
       <r>    8.4652    0.0000 </r>
       <r>    8.5478    0.0000 </r>
       <r>    8.6817    0.0000 </r>
       <r>    9.0464    0.0000 </r>
       <r>    9.2806    0.0000 </r>
       <r>    9.8175    0.0000 </r>
       <r>    9.8286    0.0000 </r>
       <r>   10.1790    0.0000 </r>
       <r>   10.3276    0.0000 </r>
       <r>   10.7477    0.0000 </r>
       <r>   11.4101    0.0000 </r>
      </set>
      <set comment="kpoint 5">
       <r>  -22.2506    1.0000 </r>
       <r>  -17.4025    1.0000 </r>
       <r>  -15.5647    1.0000 </r>
       <r>  -10.3404    1.0000 </r>
       <r>   -9.1374    1.0000 </r>
       <r>   -5.8849    1.0000 </r>
       <r>   -5.8315    1.0000 </r>
       <r>   -5.2746    1.0000 </r>
       <r>   -0.8377    0.0000 </r>
       <r>    0.5558    0.0000 </r>
       <r>    1.3459    0.0000 </r>
       <r>    1.6805    0.0000 </r>
       <r>    2.6079    0.0000 </r>
       <r>    3.0480    0.0000 </r>
       <r>    4.6483    0.0000 </r>
       <r>    4.7348    0.0000 </r>
       <r>    5.3476    0.0000 </r>
       <r>    5.6517    0.0000 </r>
       <r>    5.7323    0.0000 </r>
       <r>    7.4326    0.0000 </r>
       <r>    7.6791    0.0000 </r>
       <r>    8.2957    0.0000 </r>
       <r>    8.4822    0.0000 </r>
       <r>    8.6383    0.0000 </r>
       <r>    8.7809    0.0000 </r>
       <r>    9.5525    0.0000 </r>
       <r>    9.5800    0.0000 </r>
       <r>    9.8511    0.0000 </r>
       <r>   10.0679    0.0000 </r>
       <r>   10.4237    0.0000 </r>
       <r>   11.0475    0.0000 </r>
       <r>   11.4213    0.0000 </r>
      </set>
      <set comment="kpoint 6">
       <r>  -22.2348    1.0000 </r>
       <r>  -17.5536    1.0000 </r>
       <r>  -15.3903    1.0000 </r>
       <r>  -10.3215    1.0000 </r>
       <r>   -9.1217    1.0000 </r>
       <r>   -5.9495    1.0000 </r>
       <r>   -5.8657    1.0000 </r>
       <r>   -5.3666    1.0000 </r>
       <r>   -0.7212    0.0000 </r>
       <r>    0.5773    0.0000 </r>
       <r>    1.3677    0.0000 </r>
       <r>    1.7026    0.0000 </r>
       <r>    2.6297    0.0000 </r>
       <r>    3.0698    0.0000 </r>
       <r>    4.6560    0.0000 </r>
       <r>    4.7564    0.0000 </r>
       <r>    5.3675    0.0000 </r>
       <r>    5.6609    0.0000 </r>
       <r>    5.8012    0.0000 </r>
       <r>    7.1848    0.0000 </r>
       <r>    7.7003    0.0000 </r>
       <r>    8.0466    0.0000 </r>
       <r>    8.5041    0.0000 </r>
       <r>    8.5195    0.0000 </r>
       <r>    8.5828    0.0000 </r>
       <r>    9.3321    0.0000 </r>
       <r>    9.7842    0.0000 </r>
       <r>    9.8559    0.0000 </r>
       <r>    9.8803    0.0000 </r>
       <r>   10.6682    0.0000 </r>
       <r>   11.3369    0.0000 </r>
       <r>   11.3520    0.0000 </r>
      </set>
      <set comment="kpoint 7">
       <r>  -22.2154    1.0000 </r>
       <r>  -17.7095    1.0000 </r>
       <r>  -15.2057    1.0000 </r>
       <r>  -10.2984    1.0000 </r>
       <r>   -9.1025    1.0000 </r>
       <r>   -6.0276    1.0000 </r>
       <r>   -5.9067    1.0000 </r>
       <r>   -5.4728    1.0000 </r>
       <r>   -0.5849    0.0000 </r>
       <r>    0.6036    0.0000 </r>
       <r>    1.3944    0.0000 </r>
       <r>    1.7295    0.0000 </r>
       <r>    2.6564    0.0000 </r>
       <r>    3.0965    0.0000 </r>
       <r>    4.6655    0.0000 </r>
       <r>    4.7828    0.0000 </r>
       <r>    5.3915    0.0000 </r>
       <r>    5.6700    0.0000 </r>
       <r>    5.8842    0.0000 </r>
       <r>    6.9410    0.0000 </r>
       <r>    7.7263    0.0000 </r>
       <r>    7.8010    0.0000 </r>
       <r>    8.2628    0.0000 </r>
       <r>    8.5145    0.0000 </r>
       <r>    8.5309    0.0000 </r>
       <r>    9.0855    0.0000 </r>
       <r>    9.5550    0.0000 </r>
       <r>    9.9164    0.0000 </r>
       <r>   10.1110    0.0000 </r>
       <r>   10.8363    0.0000 </r>
       <r>   11.2222    0.0000 </r>
       <r>   11.4672    0.0000 </r>
      </set>
      <set comment="kpoint 8">
       <r>  -22.1925    1.0000 </r>
       <r>  -17.8674    1.0000 </r>
       <r>  -15.0138    1.0000 </r>
       <r>  -10.2708    1.0000 </r>
       <r>   -9.0797    1.0000 </r>
       <r>   -6.1186    1.0000 </r>
       <r>   -5.9544    1.0000 </r>
       <r>   -5.5897    1.0000 </r>
       <r>   -0.4310    0.0000 </r>
       <r>    0.6347    0.0000 </r>
       <r>    1.4259    0.0000 </r>
       <r>    1.7613    0.0000 </r>
       <r>    2.6880    0.0000 </r>
       <r>    3.1279    0.0000 </r>
       <r>    4.6771    0.0000 </r>
       <r>    4.8141    0.0000 </r>
       <r>    5.4196    0.0000 </r>
       <r>    5.6816    0.0000 </r>
       <r>    5.9810    0.0000 </r>
       <r>    6.7015    0.0000 </r>
       <r>    7.5592    0.0000 </r>
       <r>    7.7571    0.0000 </r>
       <r>    8.0110    0.0000 </r>
       <r>    8.4356    0.0000 </r>
       <r>    8.5625    0.0000 </r>
       <r>    8.8422    0.0000 </r>
       <r>    9.3086    0.0000 </r>
       <r>    9.9598    0.0000 </r>
       <r>   10.3888    0.0000 </r>
       <r>   10.7617    0.0000 </r>
       <r>   11.3436    0.0000 </r>
       <r>   11.5083    0.0000 </r>
      </set>
      <set comment="kpoint 9">
       <r>  -22.1662    1.0000 </r>
       <r>  -18.0258    1.0000 </r>
       <r>  -14.8164    1.0000 </r>
       <r>  -10.2393    1.0000 </r>
       <r>   -9.0536    1.0000 </r>
       <r>   -6.2220    1.0000 </r>
       <r>   -6.0082    1.0000 </r>
       <r>   -5.7171    1.0000 </r>
       <r>   -0.2632    0.0000 </r>
       <r>    0.6705    0.0000 </r>
       <r>    1.4622    0.0000 </r>
       <r>    1.7981    0.0000 </r>
       <r>    2.7244    0.0000 </r>
       <r>    3.1643    0.0000 </r>
       <r>    4.6898    0.0000 </r>
       <r>    4.8502    0.0000 </r>
       <r>    5.4514    0.0000 </r>
       <r>    5.6943    0.0000 </r>
       <r>    6.0937    0.0000 </r>
       <r>    6.4662    0.0000 </r>
       <r>    7.3212    0.0000 </r>
       <r>    7.7640    0.0000 </r>
       <r>    7.7925    0.0000 </r>
       <r>    8.3455    0.0000 </r>
       <r>    8.5989    0.0000 </r>
       <r>    8.6025    0.0000 </r>
       <r>    9.0661    0.0000 </r>
       <r>   10.0105    0.0000 </r>
       <r>   10.5699    0.0000 </r>
       <r>   10.6665    0.0000 </r>
       <r>   11.3018    0.0000 </r>
       <r>   11.5312    0.0000 </r>
      </set>
      <set comment="kpoint 10">
       <r>  -22.1363    1.0000 </r>
       <r>  -18.1836    1.0000 </r>
       <r>  -14.6146    1.0000 </r>
       <r>  -10.2036    1.0000 </r>
       <r>   -9.0241    1.0000 </r>
       <r>   -6.3372    1.0000 </r>
       <r>   -6.0677    1.0000 </r>
       <r>   -5.8516    1.0000 </r>
       <r>   -0.0828    0.0000 </r>
       <r>    0.7111    0.0000 </r>
       <r>    1.5033    0.0000 </r>
       <r>    1.8397    0.0000 </r>
       <r>    2.7656    0.0000 </r>
       <r>    3.2054    0.0000 </r>
       <r>    4.7040    0.0000 </r>
       <r>    4.8910    0.0000 </r>
       <r>    5.4860    0.0000 </r>
       <r>    5.7064    0.0000 </r>
       <r>    6.2181    0.0000 </r>
       <r>    6.2355    0.0000 </r>
       <r>    7.0874    0.0000 </r>
       <r>    7.5218    0.0000 </r>
       <r>    7.8325    0.0000 </r>
       <r>    8.2445    0.0000 </r>
       <r>    8.3670    0.0000 </r>
       <r>    8.6401    0.0000 </r>
       <r>    8.8280    0.0000 </r>
       <r>   10.0688    0.0000 </r>
       <r>   10.3585    0.0000 </r>
       <r>   10.9352    0.0000 </r>
       <r>   11.0774    0.0000 </r>
       <r>   11.5696    0.0000 </r>
      </set>
      <set comment="kpoint 11">
       <r>  -22.1028    1.0000 </r>
       <r>  -18.3402    1.0000 </r>
       <r>  -14.4091    1.0000 </r>
       <r>  -10.1638    1.0000 </r>
       <r>   -8.9912    1.0000 </r>
       <r>   -6.4639    1.0000 </r>
       <r>   -6.1326    1.0000 </r>
       <r>   -5.9915    1.0000 </r>
       <r>    0.1081    0.0000 </r>
       <r>    0.7565    0.0000 </r>
       <r>    1.5493    0.0000 </r>
       <r>    1.8862    0.0000 </r>
       <r>    2.8117    0.0000 </r>
       <r>    3.2514    0.0000 </r>
       <r>    4.7193    0.0000 </r>
       <r>    4.9367    0.0000 </r>
       <r>    5.5227    0.0000 </r>
       <r>    5.7211    0.0000 </r>
       <r>    6.0095    0.0000 </r>
       <r>    6.3558    0.0000 </r>
       <r>    6.8577    0.0000 </r>
       <r>    7.2845    0.0000 </r>
       <r>    7.8770    0.0000 </r>
       <r>    8.1325    0.0000 </r>
       <r>    8.1357    0.0000 </r>
       <r>    8.5945    0.0000 </r>
       <r>    8.6861    0.0000 </r>
       <r>   10.1346    0.0000 </r>
       <r>   10.1434    0.0000 </r>
       <r>   10.8329    0.0000 </r>
       <r>   11.2257    0.0000 </r>
       <r>   11.6128    0.0000 </r>
      </set>
      <set comment="kpoint 12">
       <r>  -22.0659    1.0000 </r>
       <r>  -18.4950    1.0000 </r>
       <r>  -14.2004    1.0000 </r>
       <r>  -10.1197    1.0000 </r>
       <r>   -8.9552    1.0000 </r>
       <r>   -6.6007    1.0000 </r>
       <r>   -6.2018    1.0000 </r>
       <r>   -6.1361    1.0000 </r>
       <r>    0.3079    0.0000 </r>
       <r>    0.8067    0.0000 </r>
       <r>    1.6001    0.0000 </r>
       <r>    1.9377    0.0000 </r>
       <r>    2.8627    0.0000 </r>
       <r>    3.3023    0.0000 </r>
       <r>    4.7354    0.0000 </r>
       <r>    4.9871    0.0000 </r>
       <r>    5.5594    0.0000 </r>
       <r>    5.7396    0.0000 </r>
       <r>    5.7886    0.0000 </r>
       <r>    6.5066    0.0000 </r>
       <r>    6.6323    0.0000 </r>
       <r>    7.0521    0.0000 </r>
       <r>    7.9087    0.0000 </r>
       <r>    7.9249    0.0000 </r>
       <r>    8.0134    0.0000 </r>
       <r>    8.3656    0.0000 </r>
       <r>    8.7369    0.0000 </r>
       <r>    9.9288    0.0000 </r>
       <r>   10.2083    0.0000 </r>
       <r>   10.6100    0.0000 </r>
       <r>   11.4940    0.0000 </r>
       <r>   11.6605    0.0000 </r>
      </set>
      <set comment="kpoint 13">
       <r>  -22.0255    1.0000 </r>
       <r>  -18.6477    1.0000 </r>
       <r>  -13.9889    1.0000 </r>
       <r>  -10.0716    1.0000 </r>
       <r>   -8.9156    1.0000 </r>
       <r>   -6.7474    1.0000 </r>
       <r>   -6.2831    1.0000 </r>
       <r>   -6.2762    1.0000 </r>
       <r>    0.5158    0.0000 </r>
       <r>    0.8617    0.0000 </r>
       <r>    1.6557    0.0000 </r>
       <r>    1.9940    0.0000 </r>
       <r>    2.9184    0.0000 </r>
       <r>    3.3580    0.0000 </r>
       <r>    4.7513    0.0000 </r>
       <r>    5.0422    0.0000 </r>
       <r>    5.5736    0.0000 </r>
       <r>    5.5921    0.0000 </r>
       <r>    5.7632    0.0000 </r>
       <r>    6.4114    0.0000 </r>
       <r>    6.6682    0.0000 </r>
       <r>    6.8246    0.0000 </r>
       <r>    7.6862    0.0000 </r>
       <r>    7.8744    0.0000 </r>
       <r>    7.9837    0.0000 </r>
       <r>    8.1415    0.0000 </r>
       <r>    8.7925    0.0000 </r>
       <r>    9.7165    0.0000 </r>
       <r>   10.2892    0.0000 </r>
       <r>   10.3901    0.0000 </r>
       <r>   11.7124    0.0000 </r>
       <r>   11.7570    0.0000 </r>
      </set>
      <set comment="kpoint 14">
       <r>  -21.9816    1.0000 </r>
       <r>  -18.7981    1.0000 </r>
       <r>  -13.7747    1.0000 </r>
       <r>  -10.0194    1.0000 </r>
       <r>   -8.8727    1.0000 </r>
       <r>   -6.9029    1.0000 </r>
       <r>   -6.4317    1.0000 </r>
       <r>   -6.3541    1.0000 </r>
       <r>    0.7302    0.0000 </r>
       <r>    0.9214    0.0000 </r>
       <r>    1.7162    0.0000 </r>
       <r>    2.0552    0.0000 </r>
       <r>    2.9790    0.0000 </r>
       <r>    3.4185    0.0000 </r>
       <r>    4.7663    0.0000 </r>
       <r>    5.1022    0.0000 </r>
       <r>    5.3660    0.0000 </r>
       <r>    5.6170    0.0000 </r>
       <r>    5.7973    0.0000 </r>
       <r>    6.1950    0.0000 </r>
       <r>    6.6020    0.0000 </r>
       <r>    6.8409    0.0000 </r>
       <r>    7.4682    0.0000 </r>
       <r>    7.7354    0.0000 </r>
       <r>    7.9220    0.0000 </r>
       <r>    8.0414    0.0000 </r>
       <r>    8.8528    0.0000 </r>
       <r>    9.5072    0.0000 </r>
       <r>   10.1743    0.0000 </r>
       <r>   10.3785    0.0000 </r>
       <r>   11.7689    0.0000 </r>
       <r>   12.0126    0.0000 </r>
      </set>
      <set comment="kpoint 15">
       <r>  -21.9342    1.0000 </r>
       <r>  -18.9460    1.0000 </r>
       <r>  -13.5582    1.0000 </r>
       <r>   -9.9630    1.0000 </r>
       <r>   -8.8265    1.0000 </r>
       <r>   -7.0672    1.0000 </r>
       <r>   -6.5812    1.0000 </r>
       <r>   -6.4353    1.0000 </r>
       <r>    0.9503    0.0000 </r>
       <r>    0.9860    0.0000 </r>
       <r>    1.7814    0.0000 </r>
       <r>    2.1214    0.0000 </r>
       <r>    3.0445    0.0000 </r>
       <r>    3.4839    0.0000 </r>
       <r>    4.7746    0.0000 </r>
       <r>    5.1669    0.0000 </r>
       <r>    5.1712    0.0000 </r>
       <r>    5.6321    0.0000 </r>
       <r>    5.8433    0.0000 </r>
       <r>    5.9831    0.0000 </r>
       <r>    6.3843    0.0000 </r>
       <r>    7.0248    0.0000 </r>
       <r>    7.2548    0.0000 </r>
       <r>    7.5855    0.0000 </r>
       <r>    7.7073    0.0000 </r>
       <r>    8.1047    0.0000 </r>
       <r>    8.9179    0.0000 </r>
       <r>    9.3013    0.0000 </r>
       <r>    9.9629    0.0000 </r>
       <r>   10.4752    0.0000 </r>
       <r>   11.8298    0.0000 </r>
       <r>   11.9796    0.0000 </r>
      </set>
      <set comment="kpoint 16">
       <r>  -21.8833    1.0000 </r>
       <r>  -19.0913    1.0000 </r>
       <r>  -13.3396    1.0000 </r>
       <r>   -9.9025    1.0000 </r>
       <r>   -8.7771    1.0000 </r>
       <r>   -7.2393    1.0000 </r>
       <r>   -6.7310    1.0000 </r>
       <r>   -6.5194    1.0000 </r>
       <r>    1.0553    0.0000 </r>
       <r>    1.1750    0.0000 </r>
       <r>    1.8515    0.0000 </r>
       <r>    2.1924    0.0000 </r>
       <r>    3.1147    0.0000 </r>
       <r>    3.5541    0.0000 </r>
       <r>    4.7554    0.0000 </r>
       <r>    5.0096    0.0000 </r>
       <r>    5.2364    0.0000 </r>
       <r>    5.6381    0.0000 </r>
       <r>    5.7757    0.0000 </r>
       <r>    5.9005    0.0000 </r>
       <r>    6.1716    0.0000 </r>
       <r>    7.0460    0.0000 </r>
       <r>    7.2189    0.0000 </r>
       <r>    7.4270    0.0000 </r>
       <r>    7.4974    0.0000 </r>
       <r>    8.1729    0.0000 </r>
       <r>    8.9877    0.0000 </r>
       <r>    9.0991    0.0000 </r>
       <r>    9.7560    0.0000 </r>
       <r>   10.5792    0.0000 </r>
       <r>   11.8198    0.0000 </r>
       <r>   11.8950    0.0000 </r>
      </set>
      <set comment="kpoint 17">
       <r>  -21.8290    1.0000 </r>
       <r>  -19.2338    1.0000 </r>
       <r>  -13.1192    1.0000 </r>
       <r>   -9.8379    1.0000 </r>
       <r>   -8.7247    1.0000 </r>
       <r>   -7.4191    1.0000 </r>
       <r>   -6.8807    1.0000 </r>
       <r>   -6.6059    1.0000 </r>
       <r>    1.1293    0.0000 </r>
       <r>    1.4033    0.0000 </r>
       <r>    1.9264    0.0000 </r>
       <r>    2.2683    0.0000 </r>
       <r>    3.1898    0.0000 </r>
       <r>    3.6291    0.0000 </r>
       <r>    4.6559    0.0000 </r>
       <r>    4.9341    0.0000 </r>
       <r>    5.3105    0.0000 </r>
       <r>    5.5729    0.0000 </r>
       <r>    5.6361    0.0000 </r>
       <r>    5.9638    0.0000 </r>
       <r>    5.9666    0.0000 </r>
       <r>    6.8418    0.0000 </r>
       <r>    7.2613    0.0000 </r>
       <r>    7.2922    0.0000 </r>
       <r>    7.4256    0.0000 </r>
       <r>    8.2458    0.0000 </r>
       <r>    8.9007    0.0000 </r>
       <r>    9.0622    0.0000 </r>
       <r>    9.5536    0.0000 </r>
       <r>   10.6882    0.0000 </r>
       <r>   11.6519    0.0000 </r>
       <r>   11.9645    0.0000 </r>
      </set>
      <set comment="kpoint 18">
       <r>  -21.7712    1.0000 </r>
       <r>  -19.3735    1.0000 </r>
       <r>  -12.8972    1.0000 </r>
       <r>   -9.7693    1.0000 </r>
       <r>   -8.6693    1.0000 </r>
       <r>   -7.6054    1.0000 </r>
       <r>   -7.0296    1.0000 </r>
       <r>   -6.6947    1.0000 </r>
       <r>    1.2082    0.0000 </r>
       <r>    1.6350    0.0000 </r>
       <r>    2.0061    0.0000 </r>
       <r>    2.3491    0.0000 </r>
       <r>    3.2697    0.0000 </r>
       <r>    3.7089    0.0000 </r>
       <r>    4.4918    0.0000 </r>
       <r>    4.9288    0.0000 </r>
       <r>    5.3749    0.0000 </r>
       <r>    5.3893    0.0000 </r>
       <r>    5.6286    0.0000 </r>
       <r>    5.7610    0.0000 </r>
       <r>    6.0402    0.0000 </r>
       <r>    6.6423    0.0000 </r>
       <r>    7.0872    0.0000 </r>
       <r>    7.0919    0.0000 </r>
       <r>    7.6382    0.0000 </r>
       <r>    8.3233    0.0000 </r>
       <r>    8.7064    0.0000 </r>
       <r>    9.1414    0.0000 </r>
       <r>    9.3558    0.0000 </r>
       <r>   10.8047    0.0000 </r>
       <r>   11.4812    0.0000 </r>
       <r>   12.0383    0.0000 </r>
      </set>
      <set comment="kpoint 19">
       <r>  -21.7099    1.0000 </r>
       <r>  -19.5103    1.0000 </r>
       <r>  -12.6735    1.0000 </r>
       <r>   -9.6966    1.0000 </r>
       <r>   -8.6108    1.0000 </r>
       <r>   -7.7973    1.0000 </r>
       <r>   -7.1770    1.0000 </r>
       <r>   -6.7849    1.0000 </r>
       <r>    1.2918    0.0000 </r>
       <r>    1.8696    0.0000 </r>
       <r>    2.0906    0.0000 </r>
       <r>    2.4348    0.0000 </r>
       <r>    3.3545    0.0000 </r>
       <r>    3.7936    0.0000 </r>
       <r>    4.3120    0.0000 </r>
       <r>    4.9448    0.0000 </r>
       <r>    5.1816    0.0000 </r>
       <r>    5.4727    0.0000 </r>
       <r>    5.5635    0.0000 </r>
       <r>    5.6172    0.0000 </r>
       <r>    6.1202    0.0000 </r>
       <r>    6.4475    0.0000 </r>
       <r>    6.8964    0.0000 </r>
       <r>    6.9077    0.0000 </r>
       <r>    7.8600    0.0000 </r>
       <r>    8.4055    0.0000 </r>
       <r>    8.5162    0.0000 </r>
       <r>    9.1625    0.0000 </r>
       <r>    9.2253    0.0000 </r>
       <r>   10.9279    0.0000 </r>
       <r>   11.3102    0.0000 </r>
       <r>   12.1164    0.0000 </r>
      </set>
      <set comment="kpoint 20">
       <r>  -21.6452    1.0000 </r>
       <r>  -19.6442    1.0000 </r>
       <r>  -12.4485    1.0000 </r>
       <r>   -9.6200    1.0000 </r>
       <r>   -8.5493    1.0000 </r>
       <r>   -7.9949    1.0000 </r>
       <r>   -7.3229    1.0000 </r>
       <r>   -6.8765    1.0000 </r>
       <r>    1.3801    0.0000 </r>
       <r>    2.1060    0.0000 </r>
       <r>    2.1799    0.0000 </r>
       <r>    2.5255    0.0000 </r>
       <r>    3.4440    0.0000 </r>
       <r>    3.8831    0.0000 </r>
       <r>    4.1306    0.0000 </r>
       <r>    4.9666    0.0000 </r>
       <r>    4.9932    0.0000 </r>
       <r>    5.3716    0.0000 </r>
       <r>    5.5605    0.0000 </r>
       <r>    5.6016    0.0000 </r>
       <r>    6.2060    0.0000 </r>
       <r>    6.2574    0.0000 </r>
       <r>    6.7058    0.0000 </r>
       <r>    6.7202    0.0000 </r>
       <r>    8.0900    0.0000 </r>
       <r>    8.3304    0.0000 </r>
       <r>    8.4924    0.0000 </r>
       <r>    8.9740    0.0000 </r>
       <r>    9.3140    0.0000 </r>
       <r>   11.0556    0.0000 </r>
       <r>   11.1402    0.0000 </r>
       <r>   12.0656    0.0000 </r>
      </set>
      <set comment="kpoint 21">
       <r>  -21.5770    1.0000 </r>
       <r>  -19.7750    1.0000 </r>
       <r>  -12.2226    1.0000 </r>
       <r>   -9.5397    1.0000 </r>
       <r>   -8.4852    1.0000 </r>
       <r>   -8.1972    1.0000 </r>
       <r>   -7.4668    1.0000 </r>
       <r>   -6.9690    1.0000 </r>
       <r>    1.4733    0.0000 </r>
       <r>    2.2739    0.0000 </r>
       <r>    2.3442    0.0000 </r>
       <r>    2.6210    0.0000 </r>
       <r>    3.5382    0.0000 </r>
       <r>    3.9514    0.0000 </r>
       <r>    3.9773    0.0000 </r>
       <r>    4.8099    0.0000 </r>
       <r>    4.9890    0.0000 </r>
       <r>    5.1880    0.0000 </r>
       <r>    5.5828    0.0000 </r>
       <r>    5.6522    0.0000 </r>
       <r>    6.0721    0.0000 </r>
       <r>    6.2974    0.0000 </r>
       <r>    6.5202    0.0000 </r>
       <r>    6.5271    0.0000 </r>
       <r>    8.1488    0.0000 </r>
       <r>    8.3275    0.0000 </r>
       <r>    8.5836    0.0000 </r>
       <r>    8.7901    0.0000 </r>
       <r>    9.4073    0.0000 </r>
       <r>   10.9722    0.0000 </r>
       <r>   11.1891    0.0000 </r>
       <r>   11.8849    0.0000 </r>
      </set>
      <set comment="kpoint 22">
       <r>  -21.5054    1.0000 </r>
       <r>  -19.9027    1.0000 </r>
       <r>  -11.9954    1.0000 </r>
       <r>   -9.4551    1.0000 </r>
       <r>   -8.4180    1.0000 </r>
       <r>   -8.4042    1.0000 </r>
       <r>   -7.6085    1.0000 </r>
       <r>   -7.0621    1.0000 </r>
       <r>    1.5711    0.0000 </r>
       <r>    2.3726    0.0000 </r>
       <r>    2.5826    0.0000 </r>
       <r>    2.7214    0.0000 </r>
       <r>    3.6372    0.0000 </r>
       <r>    3.7756    0.0000 </r>
       <r>    4.0763    0.0000 </r>
       <r>    4.6319    0.0000 </r>
       <r>    4.9661    0.0000 </r>
       <r>    5.0569    0.0000 </r>
       <r>    5.5603    0.0000 </r>
       <r>    5.7467    0.0000 </r>
       <r>    5.8916    0.0000 </r>
       <r>    6.3302    0.0000 </r>
       <r>    6.3396    0.0000 </r>
       <r>    6.3941    0.0000 </r>
       <r>    7.9717    0.0000 </r>
       <r>    8.5734    0.0000 </r>
       <r>    8.6109    0.0000 </r>
       <r>    8.6797    0.0000 </r>
       <r>    9.5053    0.0000 </r>
       <r>   10.8068    0.0000 </r>
       <r>   11.3257    0.0000 </r>
       <r>   11.7084    0.0000 </r>
      </set>
      <set comment="kpoint 23">
       <r>  -21.4303    1.0000 </r>
       <r>  -20.0273    1.0000 </r>
       <r>  -11.7675    1.0000 </r>
       <r>   -9.3667    1.0000 </r>
       <r>   -8.6151    1.0000 </r>
       <r>   -8.3481    1.0000 </r>
       <r>   -7.7478    1.0000 </r>
       <r>   -7.1555    1.0000 </r>
       <r>    1.6738    0.0000 </r>
       <r>    2.4761    0.0000 </r>
       <r>    2.8206    0.0000 </r>
       <r>    2.8267    0.0000 </r>
       <r>    3.6037    0.0000 </r>
       <r>    3.7409    0.0000 </r>
       <r>    4.1800    0.0000 </r>
       <r>    4.4596    0.0000 </r>
       <r>    4.8090    0.0000 </r>
       <r>    5.0655    0.0000 </r>
       <r>    5.5363    0.0000 </r>
       <r>    5.7159    0.0000 </r>
       <r>    5.8378    0.0000 </r>
       <r>    6.1363    0.0000 </r>
       <r>    6.1641    0.0000 </r>
       <r>    6.4959    0.0000 </r>
       <r>    7.7990    0.0000 </r>
       <r>    8.4363    0.0000 </r>
       <r>    8.7802    0.0000 </r>
       <r>    8.8243    0.0000 </r>
       <r>    9.6081    0.0000 </r>
       <r>   10.6443    0.0000 </r>
       <r>   11.4663    0.0000 </r>
       <r>   11.5362    0.0000 </r>
      </set>
      <set comment="kpoint 24">
       <r>  -21.3518    1.0000 </r>
       <r>  -20.1488    1.0000 </r>
       <r>  -11.5386    1.0000 </r>
       <r>   -9.2743    1.0000 </r>
       <r>   -8.8296    1.0000 </r>
       <r>   -8.2755    1.0000 </r>
       <r>   -7.8844    1.0000 </r>
       <r>   -7.2487    1.0000 </r>
       <r>    1.7812    0.0000 </r>
       <r>    2.5843    0.0000 </r>
       <r>    2.9369    0.0000 </r>
       <r>    3.0581    0.0000 </r>
       <r>    3.4360    0.0000 </r>
       <r>    3.8492    0.0000 </r>
       <r>    4.2885    0.0000 </r>
       <r>    4.2943    0.0000 </r>
       <r>    4.6383    0.0000 </r>
       <r>    5.0936    0.0000 </r>
       <r>    5.5112    0.0000 </r>
       <r>    5.5452    0.0000 </r>
       <r>    5.8488    0.0000 </r>
       <r>    5.9940    0.0000 </r>
       <r>    6.0226    0.0000 </r>
       <r>    6.6028    0.0000 </r>
       <r>    7.6308    0.0000 </r>
       <r>    8.2666    0.0000 </r>
       <r>    8.8854    0.0000 </r>
       <r>    9.0817    0.0000 </r>
       <r>    9.7155    0.0000 </r>
       <r>   10.4852    0.0000 </r>
       <r>   11.3686    0.0000 </r>
       <r>   11.6086    0.0000 </r>
      </set>
      <set comment="kpoint 25">
       <r>  -21.2700    1.0000 </r>
       <r>  -20.2671    1.0000 </r>
       <r>  -11.3096    1.0000 </r>
       <r>   -9.1782    1.0000 </r>
       <r>   -9.0469    1.0000 </r>
       <r>   -8.2005    1.0000 </r>
       <r>   -8.0184    1.0000 </r>
       <r>   -7.3417    1.0000 </r>
       <r>    1.8933    0.0000 </r>
       <r>    2.6970    0.0000 </r>
       <r>    3.0520    0.0000 </r>
       <r>    3.2727    0.0000 </r>
       <r>    3.2889    0.0000 </r>
       <r>    3.9620    0.0000 </r>
       <r>    4.1387    0.0000 </r>
       <r>    4.4015    0.0000 </r>
       <r>    4.4706    0.0000 </r>
       <r>    5.1234    0.0000 </r>
       <r>    5.3794    0.0000 </r>
       <r>    5.4830    0.0000 </r>
       <r>    5.6717    0.0000 </r>
       <r>    5.8297    0.0000 </r>
       <r>    6.0972    0.0000 </r>
       <r>    6.7147    0.0000 </r>
       <r>    7.4671    0.0000 </r>
       <r>    8.1015    0.0000 </r>
       <r>    8.9950    0.0000 </r>
       <r>    9.3439    0.0000 </r>
       <r>    9.8276    0.0000 </r>
       <r>   10.3295    0.0000 </r>
       <r>   11.2054    0.0000 </r>
       <r>   11.7543    0.0000 </r>
      </set>
      <set comment="kpoint 26">
       <r>  -21.1847    1.0000 </r>
       <r>  -20.3822    1.0000 </r>
       <r>  -11.0803    1.0000 </r>
       <r>   -9.2669    1.0000 </r>
       <r>   -9.0783    1.0000 </r>
       <r>   -8.1493    1.0000 </r>
       <r>   -8.1231    1.0000 </r>
       <r>   -7.4339    1.0000 </r>
       <r>    2.0101    0.0000 </r>
       <r>    2.8144    0.0000 </r>
       <r>    3.1139    0.0000 </r>
       <r>    3.1719    0.0000 </r>
       <r>    3.5020    0.0000 </r>
       <r>    4.0046    0.0000 </r>
       <r>    4.0791    0.0000 </r>
       <r>    4.3071    0.0000 </r>
       <r>    4.5190    0.0000 </r>
       <r>    5.1523    0.0000 </r>
       <r>    5.2190    0.0000 </r>
       <r>    5.4536    0.0000 </r>
       <r>    5.4601    0.0000 </r>
       <r>    5.6724    0.0000 </r>
       <r>    6.2076    0.0000 </r>
       <r>    6.8315    0.0000 </r>
       <r>    7.3080    0.0000 </r>
       <r>    7.9412    0.0000 </r>
       <r>    9.1091    0.0000 </r>
       <r>    9.6132    0.0000 </r>
       <r>    9.9444    0.0000 </r>
       <r>   10.1776    0.0000 </r>
       <r>   11.0468    0.0000 </r>
       <r>   11.9033    0.0000 </r>
      </set>
      <set comment="kpoint 27">
       <r>  -21.0961    1.0000 </r>
       <r>  -20.4941    1.0000 </r>
       <r>  -10.8511    1.0000 </r>
       <r>   -9.4892    1.0000 </r>
       <r>   -8.9746    1.0000 </r>
       <r>   -8.2772    1.0000 </r>
       <r>   -8.0435    1.0000 </r>
       <r>   -7.5254    1.0000 </r>
       <r>    2.1317    0.0000 </r>
       <r>    2.9361    0.0000 </r>
       <r>    2.9597    0.0000 </r>
       <r>    3.2968    0.0000 </r>
       <r>    3.6317    0.0000 </r>
       <r>    3.9571    0.0000 </r>
       <r>    4.1483    0.0000 </r>
       <r>    4.1997    0.0000 </r>
       <r>    4.6407    0.0000 </r>
       <r>    5.0642    0.0000 </r>
       <r>    5.1767    0.0000 </r>
       <r>    5.2414    0.0000 </r>
       <r>    5.4230    0.0000 </r>
       <r>    5.5252    0.0000 </r>
       <r>    6.3268    0.0000 </r>
       <r>    6.9533    0.0000 </r>
       <r>    7.1536    0.0000 </r>
       <r>    7.7856    0.0000 </r>
       <r>    9.2276    0.0000 </r>
       <r>    9.8862    0.0000 </r>
       <r>   10.0295    0.0000 </r>
       <r>   10.0659    0.0000 </r>
       <r>   10.8928    0.0000 </r>
       <r>   11.6165    0.0000 </r>
      </set>
      <set comment="kpoint 28">
       <r>  -21.0041    1.0000 </r>
       <r>  -20.6027    1.0000 </r>
       <r>  -10.6220    1.0000 </r>
       <r>   -9.7131    1.0000 </r>
       <r>   -8.8673    1.0000 </r>
       <r>   -8.4020    1.0000 </r>
       <r>   -7.9616    1.0000 </r>
       <r>   -7.6156    1.0000 </r>
       <r>    2.2580    0.0000 </r>
       <r>    2.8101    0.0000 </r>
       <r>    3.0620    0.0000 </r>
       <r>    3.4265    0.0000 </r>
       <r>    3.5786    0.0000 </r>
       <r>    3.9943    0.0000 </r>
       <r>    4.0935    0.0000 </r>
       <r>    4.3221    0.0000 </r>
       <r>    4.7662    0.0000 </r>
       <r>    4.9164    0.0000 </r>
       <r>    5.0223    0.0000 </r>
       <r>    5.1828    0.0000 </r>
       <r>    5.3929    0.0000 </r>
       <r>    5.4007    0.0000 </r>
       <r>    6.4521    0.0000 </r>
       <r>    7.0037    0.0000 </r>
       <r>    7.0799    0.0000 </r>
       <r>    7.6349    0.0000 </r>
       <r>    9.3505    0.0000 </r>
       <r>    9.8853    0.0000 </r>
       <r>   10.1651    0.0000 </r>
       <r>   10.1921    0.0000 </r>
       <r>   10.7434    0.0000 </r>
       <r>   11.3183    0.0000 </r>
      </set>
      <set comment="kpoint 29">
       <r>  -20.9087    1.0000 </r>
       <r>  -20.7080    1.0000 </r>
       <r>  -10.3934    1.0000 </r>
       <r>   -9.9385    1.0000 </r>
       <r>   -8.7562    1.0000 </r>
       <r>   -8.5234    1.0000 </r>
       <r>   -7.8778    1.0000 </r>
       <r>   -7.7043    1.0000 </r>
       <r>    2.3890    0.0000 </r>
       <r>    2.6651    0.0000 </r>
       <r>    3.1917    0.0000 </r>
       <r>    3.4566    0.0000 </r>
       <r>    3.5612    0.0000 </r>
       <r>    3.8450    0.0000 </r>
       <r>    4.2952    0.0000 </r>
       <r>    4.4374    0.0000 </r>
       <r>    4.7803    0.0000 </r>
       <r>    4.8133    0.0000 </r>
       <r>    4.8942    0.0000 </r>
       <r>    5.1318    0.0000 </r>
       <r>    5.3388    0.0000 </r>
       <r>    5.3647    0.0000 </r>
       <r>    6.5827    0.0000 </r>
       <r>    6.8586    0.0000 </r>
       <r>    7.2114    0.0000 </r>
       <r>    7.4889    0.0000 </r>
       <r>    9.4778    0.0000 </r>
       <r>    9.7453    0.0000 </r>
       <r>   10.3229    0.0000 </r>
       <r>   10.4494    0.0000 </r>
       <r>   10.5986    0.0000 </r>
       <r>   11.0255    0.0000 </r>
      </set>
      <set comment="kpoint 30">
       <r>  -20.8100    1.0000 </r>
       <r>  -20.8100    1.0000 </r>
       <r>  -10.1655    1.0000 </r>
       <r>  -10.1655    1.0000 </r>
       <r>   -8.6413    1.0000 </r>
       <r>   -8.6413    1.0000 </r>
       <r>   -7.7921    1.0000 </r>
       <r>   -7.7921    1.0000 </r>
       <r>    2.5247    0.0000 </r>
       <r>    2.5247    0.0000 </r>
       <r>    3.3242    0.0000 </r>
       <r>    3.3242    0.0000 </r>
       <r>    3.7007    0.0000 </r>
       <r>    3.7007    0.0000 </r>
       <r>    4.4650    0.0000 </r>
       <r>    4.4650    0.0000 </r>
       <r>    4.6940    0.0000 </r>
       <r>    4.6940    0.0000 </r>
       <r>    5.0211    0.0000 </r>
       <r>    5.0211    0.0000 </r>
       <r>    5.3416    0.0000 </r>
       <r>    5.3416    0.0000 </r>
       <r>    6.7183    0.0000 </r>
       <r>    6.7183    0.0000 </r>
       <r>    7.3477    0.0000 </r>
       <r>    7.3477    0.0000 </r>
       <r>    9.6095    0.0000 </r>
       <r>    9.6095    0.0000 </r>
       <r>   10.4585    0.0000 </r>
       <r>   10.4585    0.0000 </r>
       <r>   10.7355    0.0000 </r>
       <r>   10.7355    0.0000 </r>
      </set>
      <set comment="kpoint 31">
       <r>  -20.8100    1.0000 </r>
       <r>  -20.8100    1.0000 </r>
       <r>  -10.1655    1.0000 </r>
       <r>  -10.1655    1.0000 </r>
       <r>   -8.6413    1.0000 </r>
       <r>   -8.6413    1.0000 </r>
       <r>   -7.7921    1.0000 </r>
       <r>   -7.7921    1.0000 </r>
       <r>    2.5247    0.0000 </r>
       <r>    2.5247    0.0000 </r>
       <r>    3.3242    0.0000 </r>
       <r>    3.3242    0.0000 </r>
       <r>    3.7007    0.0000 </r>
       <r>    3.7007    0.0000 </r>
       <r>    4.4650    0.0000 </r>
       <r>    4.4650    0.0000 </r>
       <r>    4.6940    0.0000 </r>
       <r>    4.6940    0.0000 </r>
       <r>    5.0211    0.0000 </r>
       <r>    5.0211    0.0000 </r>
       <r>    5.3416    0.0000 </r>
       <r>    5.3416    0.0000 </r>
       <r>    6.7183    0.0000 </r>
       <r>    6.7183    0.0000 </r>
       <r>    7.3477    0.0000 </r>
       <r>    7.3477    0.0000 </r>
       <r>    9.6095    0.0000 </r>
       <r>    9.6095    0.0000 </r>
       <r>   10.4585    0.0000 </r>
       <r>   10.4585    0.0000 </r>
       <r>   10.7355    0.0000 </r>
       <r>   10.7355    0.0000 </r>
      </set>
      <set comment="kpoint 32">
       <r>  -20.8048    1.0000 </r>
       <r>  -20.8048    1.0000 </r>
       <r>  -10.1659    1.0000 </r>
       <r>  -10.1659    1.0000 </r>
       <r>   -8.6354    1.0000 </r>
       <r>   -8.6354    1.0000 </r>
       <r>   -7.8138    1.0000 </r>
       <r>   -7.8138    1.0000 </r>
       <r>    2.5319    0.0000 </r>
       <r>    2.5319    0.0000 </r>
       <r>    3.3314    0.0000 </r>
       <r>    3.3314    0.0000 </r>
       <r>    3.7080    0.0000 </r>
       <r>    3.7080    0.0000 </r>
       <r>    4.4637    0.0000 </r>
       <r>    4.4637    0.0000 </r>
       <r>    4.6944    0.0000 </r>
       <r>    4.6944    0.0000 </r>
       <r>    5.0306    0.0000 </r>
       <r>    5.0306    0.0000 </r>
       <r>    5.3702    0.0000 </r>
       <r>    5.3702    0.0000 </r>
       <r>    6.7249    0.0000 </r>
       <r>    6.7249    0.0000 </r>
       <r>    7.3550    0.0000 </r>
       <r>    7.3550    0.0000 </r>
       <r>    9.6157    0.0000 </r>
       <r>    9.6157    0.0000 </r>
       <r>   10.4637    0.0000 </r>
       <r>   10.4637    0.0000 </r>
       <r>   10.6761    0.0000 </r>
       <r>   10.6761    0.0000 </r>
      </set>
      <set comment="kpoint 33">
       <r>  -20.7893    1.0000 </r>
       <r>  -20.7893    1.0000 </r>
       <r>  -10.1676    1.0000 </r>
       <r>  -10.1676    1.0000 </r>
       <r>   -8.6172    1.0000 </r>
       <r>   -8.6172    1.0000 </r>
       <r>   -7.8790    1.0000 </r>
       <r>   -7.8790    1.0000 </r>
       <r>    2.5535    0.0000 </r>
       <r>    2.5535    0.0000 </r>
       <r>    3.3531    0.0000 </r>
       <r>    3.3531    0.0000 </r>
       <r>    3.7301    0.0000 </r>
       <r>    3.7301    0.0000 </r>
       <r>    4.4555    0.0000 </r>
       <r>    4.4555    0.0000 </r>
       <r>    4.6979    0.0000 </r>
       <r>    4.6979    0.0000 </r>
       <r>    5.0575    0.0000 </r>
       <r>    5.0575    0.0000 </r>
       <r>    5.4563    0.0000 </r>
       <r>    5.4563    0.0000 </r>
       <r>    6.7449    0.0000 </r>
       <r>    6.7449    0.0000 </r>
       <r>    7.3768    0.0000 </r>
       <r>    7.3768    0.0000 </r>
       <r>    9.6343    0.0000 </r>
       <r>    9.6343    0.0000 </r>
       <r>   10.4562    0.0000 </r>
       <r>   10.4562    0.0000 </r>
       <r>   10.5342    0.0000 </r>
       <r>   10.5342    0.0000 </r>
      </set>
      <set comment="kpoint 34">
       <r>  -20.7635    1.0000 </r>
       <r>  -20.7634    1.0000 </r>
       <r>  -10.1710    1.0000 </r>
       <r>  -10.1710    1.0000 </r>
       <r>   -8.5867    1.0000 </r>
       <r>   -8.5867    1.0000 </r>
       <r>   -7.9847    1.0000 </r>
       <r>   -7.9847    1.0000 </r>
       <r>    2.5895    0.0000 </r>
       <r>    2.5895    0.0000 </r>
       <r>    3.3894    0.0000 </r>
       <r>    3.3894    0.0000 </r>
       <r>    3.7669    0.0000 </r>
       <r>    3.7669    0.0000 </r>
       <r>    4.4318    0.0000 </r>
       <r>    4.4318    0.0000 </r>
       <r>    4.7124    0.0000 </r>
       <r>    4.7124    0.0000 </r>
       <r>    5.0993    0.0000 </r>
       <r>    5.0993    0.0000 </r>
       <r>    5.5999    0.0000 </r>
       <r>    5.5999    0.0000 </r>
       <r>    6.7784    0.0000 </r>
       <r>    6.7784    0.0000 </r>
       <r>    7.4132    0.0000 </r>
       <r>    7.4132    0.0000 </r>
       <r>    9.6653    0.0000 </r>
       <r>    9.6653    0.0000 </r>
       <r>   10.2587    0.0000 </r>
       <r>   10.2587    0.0000 </r>
       <r>   10.5337    0.0000 </r>
       <r>   10.5337    0.0000 </r>
      </set>
      <set comment="kpoint 35">
       <r>  -20.7273    1.0000 </r>
       <r>  -20.7273    1.0000 </r>
       <r>  -10.1776    1.0000 </r>
       <r>  -10.1776    1.0000 </r>
       <r>   -8.5443    1.0000 </r>
       <r>   -8.5443    1.0000 </r>
       <r>   -8.1249    1.0000 </r>
       <r>   -8.1249    1.0000 </r>
       <r>    2.6399    0.0000 </r>
       <r>    2.6399    0.0000 </r>
       <r>    3.4401    0.0000 </r>
       <r>    3.4401    0.0000 </r>
       <r>    3.8183    0.0000 </r>
       <r>    3.8183    0.0000 </r>
       <r>    4.3870    0.0000 </r>
       <r>    4.3870    0.0000 </r>
       <r>    4.7456    0.0000 </r>
       <r>    4.7456    0.0000 </r>
       <r>    5.1546    0.0000 </r>
       <r>    5.1546    0.0000 </r>
       <r>    5.7979    0.0000 </r>
       <r>    5.7979    0.0000 </r>
       <r>    6.8255    0.0000 </r>
       <r>    6.8255    0.0000 </r>
       <r>    7.4642    0.0000 </r>
       <r>    7.4642    0.0000 </r>
       <r>    9.7088    0.0000 </r>
       <r>    9.7088    0.0000 </r>
       <r>    9.9977    0.0000 </r>
       <r>    9.9977    0.0000 </r>
       <r>   10.5805    0.0000 </r>
       <r>   10.5805    0.0000 </r>
      </set>
      <set comment="kpoint 36">
       <r>  -20.6808    1.0000 </r>
       <r>  -20.6808    1.0000 </r>
       <r>  -10.1902    1.0000 </r>
       <r>  -10.1902    1.0000 </r>
       <r>   -8.4899    1.0000 </r>
       <r>   -8.4899    1.0000 </r>
       <r>   -8.2949    1.0000 </r>
       <r>   -8.2949    1.0000 </r>
       <r>    2.7044    0.0000 </r>
       <r>    2.7044    0.0000 </r>
       <r>    3.5053    0.0000 </r>
       <r>    3.5053    0.0000 </r>
       <r>    3.8844    0.0000 </r>
       <r>    3.8844    0.0000 </r>
       <r>    4.3168    0.0000 </r>
       <r>    4.3168    0.0000 </r>
       <r>    4.7987    0.0000 </r>
       <r>    4.7987    0.0000 </r>
       <r>    5.2231    0.0000 </r>
       <r>    5.2231    0.0000 </r>
       <r>    6.0427    0.0000 </r>
       <r>    6.0427    0.0000 </r>
       <r>    6.8864    0.0000 </r>
       <r>    6.8864    0.0000 </r>
       <r>    7.5300    0.0000 </r>
       <r>    7.5300    0.0000 </r>
       <r>    9.7208    0.0000 </r>
       <r>    9.7208    0.0000 </r>
       <r>    9.7647    0.0000 </r>
       <r>    9.7647    0.0000 </r>
       <r>   10.6436    0.0000 </r>
       <r>   10.6436    0.0000 </r>
      </set>
      <set comment="kpoint 37">
       <r>  -20.6240    1.0000 </r>
       <r>  -20.6240    1.0000 </r>
       <r>  -10.2127    1.0000 </r>
       <r>  -10.2127    1.0000 </r>
       <r>   -8.4852    1.0000 </r>
       <r>   -8.4852    1.0000 </r>
       <r>   -8.4236    1.0000 </r>
       <r>   -8.4236    1.0000 </r>
       <r>    2.7833    0.0000 </r>
       <r>    2.7833    0.0000 </r>
       <r>    3.5848    0.0000 </r>
       <r>    3.5848    0.0000 </r>
       <r>    3.9652    0.0000 </r>
       <r>    3.9652    0.0000 </r>
       <r>    4.2203    0.0000 </r>
       <r>    4.2203    0.0000 </r>
       <r>    4.8706    0.0000 </r>
       <r>    4.8706    0.0000 </r>
       <r>    5.3051    0.0000 </r>
       <r>    5.3051    0.0000 </r>
       <r>    6.3248    0.0000 </r>
       <r>    6.3248    0.0000 </r>
       <r>    6.9613    0.0000 </r>
       <r>    6.9613    0.0000 </r>
       <r>    7.6110    0.0000 </r>
       <r>    7.6110    0.0000 </r>
       <r>    9.4458    0.0000 </r>
       <r>    9.4458    0.0000 </r>
       <r>    9.8330    0.0000 </r>
       <r>    9.8330    0.0000 </r>
       <r>   10.7213    0.0000 </r>
       <r>   10.7213    0.0000 </r>
      </set>
      <set comment="kpoint 38">
       <r>  -20.5569    1.0000 </r>
       <r>  -20.5569    1.0000 </r>
       <r>  -10.2510    1.0000 </r>
       <r>  -10.2510    1.0000 </r>
       <r>   -8.6851    1.0000 </r>
       <r>   -8.6851    1.0000 </r>
       <r>   -8.3455    1.0000 </r>
       <r>   -8.3455    1.0000 </r>
       <r>    2.8763    0.0000 </r>
       <r>    2.8763    0.0000 </r>
       <r>    3.6785    0.0000 </r>
       <r>    3.6785    0.0000 </r>
       <r>    4.0606    0.0000 </r>
       <r>    4.0606    0.0000 </r>
       <r>    4.1004    0.0000 </r>
       <r>    4.1004    0.0000 </r>
       <r>    4.9598    0.0000 </r>
       <r>    4.9598    0.0000 </r>
       <r>    5.4008    0.0000 </r>
       <r>    5.4008    0.0000 </r>
       <r>    6.6298    0.0000 </r>
       <r>    6.6298    0.0000 </r>
       <r>    7.0503    0.0000 </r>
       <r>    7.0503    0.0000 </r>
       <r>    7.7077    0.0000 </r>
       <r>    7.7077    0.0000 </r>
       <r>    9.1869    0.0000 </r>
       <r>    9.1869    0.0000 </r>
       <r>    9.9139    0.0000 </r>
       <r>    9.9139    0.0000 </r>
       <r>   10.8135    0.0000 </r>
       <r>   10.8135    0.0000 </r>
      </set>
      <set comment="kpoint 39">
       <r>  -20.4796    1.0000 </r>
       <r>  -20.4796    1.0000 </r>
       <r>  -10.3147    1.0000 </r>
       <r>  -10.3147    1.0000 </r>
       <r>   -8.8811    1.0000 </r>
       <r>   -8.8811    1.0000 </r>
       <r>   -8.2557    1.0000 </r>
       <r>   -8.2557    1.0000 </r>
       <r>    2.9835    0.0000 </r>
       <r>    2.9835    0.0000 </r>
       <r>    3.7848    0.0000 </r>
       <r>    3.7848    0.0000 </r>
       <r>    3.9574    0.0000 </r>
       <r>    3.9574    0.0000 </r>
       <r>    4.1706    0.0000 </r>
       <r>    4.1706    0.0000 </r>
       <r>    5.0653    0.0000 </r>
       <r>    5.0653    0.0000 </r>
       <r>    5.5106    0.0000 </r>
       <r>    5.5106    0.0000 </r>
       <r>    6.9318    0.0000 </r>
       <r>    6.9318    0.0000 </r>
       <r>    7.1536    0.0000 </r>
       <r>    7.1536    0.0000 </r>
       <r>    7.8210    0.0000 </r>
       <r>    7.8210    0.0000 </r>
       <r>    8.9671    0.0000 </r>
       <r>    8.9671    0.0000 </r>
       <r>   10.0072    0.0000 </r>
       <r>   10.0072    0.0000 </r>
       <r>   10.9199    0.0000 </r>
       <r>   10.9199    0.0000 </r>
      </set>
      <set comment="kpoint 40">
       <r>  -20.3921    1.0000 </r>
       <r>  -20.3921    1.0000 </r>
       <r>  -10.4158    1.0000 </r>
       <r>  -10.4158    1.0000 </r>
       <r>   -9.0565    1.0000 </r>
       <r>   -9.0565    1.0000 </r>
       <r>   -8.1542    1.0000 </r>
       <r>   -8.1542    1.0000 </r>
       <r>    3.1048    0.0000 </r>
       <r>    3.1048    0.0000 </r>
       <r>    3.7804    0.0000 </r>
       <r>    3.7804    0.0000 </r>
       <r>    3.9169    0.0000 </r>
       <r>    3.9169    0.0000 </r>
       <r>    4.2954    0.0000 </r>
       <r>    4.2954    0.0000 </r>
       <r>    5.1863    0.0000 </r>
       <r>    5.1863    0.0000 </r>
       <r>    5.6343    0.0000 </r>
       <r>    5.6343    0.0000 </r>
       <r>    7.1842    0.0000 </r>
       <r>    7.1842    0.0000 </r>
       <r>    7.2714    0.0000 </r>
       <r>    7.2714    0.0000 </r>
       <r>    7.9501    0.0000 </r>
       <r>    7.9501    0.0000 </r>
       <r>    8.8303    0.0000 </r>
       <r>    8.8303    0.0000 </r>
       <r>   10.1132    0.0000 </r>
       <r>   10.1132    0.0000 </r>
       <r>   11.0406    0.0000 </r>
       <r>   11.0406    0.0000 </r>
      </set>
      <set comment="kpoint 41">
       <r>  -20.2945    1.0000 </r>
       <r>  -20.2945    1.0000 </r>
       <r>  -10.5654    1.0000 </r>
       <r>  -10.5654    1.0000 </r>
       <r>   -9.1971    1.0000 </r>
       <r>   -9.1971    1.0000 </r>
       <r>   -8.0417    1.0000 </r>
       <r>   -8.0417    1.0000 </r>
       <r>    3.2403    0.0000 </r>
       <r>    3.2403    0.0000 </r>
       <r>    3.5921    0.0000 </r>
       <r>    3.5921    0.0000 </r>
       <r>    4.0510    0.0000 </r>
       <r>    4.0510    0.0000 </r>
       <r>    4.4347    0.0000 </r>
       <r>    4.4347    0.0000 </r>
       <r>    5.3225    0.0000 </r>
       <r>    5.3225    0.0000 </r>
       <r>    5.7721    0.0000 </r>
       <r>    5.7721    0.0000 </r>
       <r>    7.3133    0.0000 </r>
       <r>    7.3133    0.0000 </r>
       <r>    7.4034    0.0000 </r>
       <r>    7.4034    0.0000 </r>
       <r>    8.0875    0.0000 </r>
       <r>    8.0875    0.0000 </r>
       <r>    8.8553    0.0000 </r>
       <r>    8.8553    0.0000 </r>
       <r>   10.2315    0.0000 </r>
       <r>   10.2315    0.0000 </r>
       <r>   11.1755    0.0000 </r>
       <r>   11.1755    0.0000 </r>
      </set>
      <set comment="kpoint 42">
       <r>  -20.1867    1.0000 </r>
       <r>  -20.1867    1.0000 </r>
       <r>  -10.7672    1.0000 </r>
       <r>  -10.7672    1.0000 </r>
       <r>   -9.2962    1.0000 </r>
       <r>   -9.2962    1.0000 </r>
       <r>   -7.9184    1.0000 </r>
       <r>   -7.9184    1.0000 </r>
       <r>    3.3773    0.0000 </r>
       <r>    3.3773    0.0000 </r>
       <r>    3.3899    0.0000 </r>
       <r>    3.3899    0.0000 </r>
       <r>    4.2023    0.0000 </r>
[...]
        <r>  0.0026  0.0003  0.0000  0.0001  0.0000  0.0000  0.0000  0.0000  0.0000 </r>
       </set>
       <set comment="band 18">
        <r>  0.0002  0.1222  0.0000  0.0087  0.0000  0.0000  0.0000  0.0000  0.0000 </r>
        <r>  0.0002  0.1222  0.0000  0.0087  0.0000  0.0000  0.0000  0.0000  0.0000 </r>
        <r>  0.0002  0.1222  0.0000  0.0087  0.0000  0.0000  0.0000  0.0000  0.0000 </r>
        <r>  0.0002  0.1222  0.0000  0.0087  0.0000  0.0000  0.0000  0.0000  0.0000 </r>
       </set>
       <set comment="band 19">
        <r>  0.0000  0.0089  0.0000  0.1229  0.0000  0.0000  0.0000  0.0000  0.0000 </r>
        <r>  0.0000  0.0089  0.0000  0.1229  0.0000  0.0000  0.0000  0.0000  0.0000 </r>
        <r>  0.0000  0.0089  0.0000  0.1229  0.0000  0.0000  0.0000  0.0000  0.0000 </r>
        <r>  0.0000  0.0089  0.0000  0.1229  0.0000  0.0000  0.0000  0.0000  0.0000 </r>
       </set>
       <set comment="band 20">
        <r>  0.0000  0.0000  0.0088  0.0000  0.0000  0.0000  0.0000  0.0000  0.0000 </r>
        <r>  0.0000  0.0000  0.0088  0.0000  0.0000  0.0000  0.0000  0.0000  0.0000 </r>
        <r>  0.0000  0.0000  0.0088  0.0000  0.0000  0.0000  0.0000  0.0000  0.0000 </r>
        <r>  0.0000  0.0000  0.0088  0.0000  0.0000  0.0000  0.0000  0.0000  0.0000 </r>
       </set>
       <set comment="band 21">
        <r>  0.0020  0.0000  0.0000  0.0068  0.0000  0.0000  0.0000  0.0000  0.0000 </r>
        <r>  0.0020  0.0000  0.0000  0.0068  0.0000  0.0000  0.0000  0.0000  0.0000 </r>
        <r>  0.0020  0.0000  0.0000  0.0068  0.0000  0.0000  0.0000  0.0000  0.0000 </r>
        <r>  0.0020  0.0000  0.0000  0.0068  0.0000  0.0000  0.0000  0.0000  0.0000 </r>
       </set>
       <set comment="band 22">
        <r>  0.0030  0.0000  0.0000  0.0000  0.0000  0.0000  0.0000  0.0000  0.0000 </r>
        <r>  0.0030  0.0000  0.0000  0.0000  0.0000  0.0000  0.0000  0.0000  0.0000 </r>
        <r>  0.0030  0.0000  0.0000  0.0000  0.0000  0.0000  0.0000  0.0000  0.0000 </r>
        <r>  0.0030  0.0000  0.0000  0.0000  0.0000  0.0000  0.0000  0.0000  0.0000 </r>
       </set>
       <set comment="band 23">
        <r>  0.0000  0.0000  0.1955  0.0000  0.0000  0.0000  0.0000  0.0000  0.0000 </r>
        <r>  0.0000  0.0000  0.1955  0.0000  0.0000  0.0000  0.0000  0.0000  0.0000 </r>
        <r>  0.0000  0.0000  0.1955  0.0000  0.0000  0.0000  0.0000  0.0000  0.0000 </r>
        <r>  0.0000  0.0000  0.1955  0.0000  0.0000  0.0000  0.0000  0.0000  0.0000 </r>
       </set>
       <set comment="band 24">
        <r>  0.0012  0.0000  0.0000  0.0083  0.0000  0.0000  0.0000  0.0000  0.0000 </r>
        <r>  0.0012  0.0000  0.0000  0.0083  0.0000  0.0000  0.0000  0.0000  0.0000 </r>
        <r>  0.0012  0.0000  0.0000  0.0083  0.0000  0.0000  0.0000  0.0000  0.0000 </r>
        <r>  0.0012  0.0000  0.0000  0.0083  0.0000  0.0000  0.0000  0.0000  0.0000 </r>
       </set>
       <set comment="band 25">
        <r>  0.0000  0.0000  0.0141  0.0000  0.0000  0.0000  0.0000  0.0000  0.0000 </r>
        <r>  0.0000  0.0000  0.0141  0.0000  0.0000  0.0000  0.0000  0.0000  0.0000 </r>
        <r>  0.0000  0.0000  0.0141  0.0000  0.0000  0.0000  0.0000  0.0000  0.0000 </r>
        <r>  0.0000  0.0000  0.0141  0.0000  0.0000  0.0000  0.0000  0.0000  0.0000 </r>
       </set>
       <set comment="band 26">
        <r>  0.0001  0.0000  0.0000  0.0006  0.0000  0.0000  0.0000  0.0000  0.0000 </r>
        <r>  0.0001  0.0000  0.0000  0.0006  0.0000  0.0000  0.0000  0.0000  0.0000 </r>
        <r>  0.0001  0.0000  0.0000  0.0006  0.0000  0.0000  0.0000  0.0000  0.0000 </r>
        <r>  0.0001  0.0000  0.0000  0.0006  0.0000  0.0000  0.0000  0.0000  0.0000 </r>
       </set>
       <set comment="band 27">
        <r>  0.0000  0.0000  0.0110  0.0000  0.0000  0.0000  0.0000  0.0000  0.0000 </r>
        <r>  0.0000  0.0000  0.0110  0.0000  0.0000  0.0000  0.0000  0.0000  0.0000 </r>
        <r>  0.0000  0.0000  0.0110  0.0000  0.0000  0.0000  0.0000  0.0000  0.0000 </r>
        <r>  0.0000  0.0000  0.0110  0.0000  0.0000  0.0000  0.0000  0.0000  0.0000 </r>
       </set>
       <set comment="band 28">
        <r>  0.1785  0.0004  0.0000  0.0001  0.0000  0.0000  0.0000  0.0000  0.0000 </r>
        <r>  0.1785  0.0004  0.0000  0.0001  0.0000  0.0000  0.0000  0.0000  0.0000 </r>
        <r>  0.1785  0.0004  0.0000  0.0001  0.0000  0.0000  0.0000  0.0000  0.0000 </r>
        <r>  0.1785  0.0004  0.0000  0.0001  0.0000  0.0000  0.0000  0.0000  0.0000 </r>
       </set>
       <set comment="band 29">
        <r>  0.0001  0.0000  0.0000  0.0007  0.0000  0.0000  0.0000  0.0000  0.0000 </r>
        <r>  0.0001  0.0000  0.0000  0.0007  0.0000  0.0000  0.0000  0.0000  0.0000 </r>
        <r>  0.0001  0.0000  0.0000  0.0007  0.0000  0.0000  0.0000  0.0000  0.0000 </r>
        <r>  0.0001  0.0000  0.0000  0.0007  0.0000  0.0000  0.0000  0.0000  0.0000 </r>
       </set>
       <set comment="band 30">
        <r>  0.0000  0.0000  0.0063  0.0000  0.0000  0.0000  0.0000  0.0000  0.0000 </r>
        <r>  0.0000  0.0000  0.0063  0.0000  0.0000  0.0000  0.0000  0.0000  0.0000 </r>
        <r>  0.0000  0.0000  0.0063  0.0000  0.0000  0.0000  0.0000  0.0000  0.0000 </r>
        <r>  0.0000  0.0000  0.0063  0.0000  0.0000  0.0000  0.0000  0.0000  0.0000 </r>
       </set>
       <set comment="band 31">
        <r>  0.0004  0.0000  0.0000  0.0030  0.0000  0.0000  0.0000  0.0000  0.0000 </r>
        <r>  0.0004  0.0000  0.0000  0.0030  0.0000  0.0000  0.0000  0.0000  0.0000 </r>
        <r>  0.0004  0.0000  0.0000  0.0030  0.0000  0.0000  0.0000  0.0000  0.0000 </r>
        <r>  0.0004  0.0000  0.0000  0.0030  0.0000  0.0000  0.0000  0.0000  0.0000 </r>
       </set>
       <set comment="band 32">
        <r>  0.0000  0.0000  0.0058  0.0000  0.0000  0.0000  0.0000  0.0000  0.0000 </r>
        <r>  0.0000  0.0000  0.0058  0.0000  0.0000  0.0000  0.0000  0.0000  0.0000 </r>
        <r>  0.0000  0.0000  0.0058  0.0000  0.0000  0.0000  0.0000  0.0000  0.0000 </r>
        <r>  0.0000  0.0000  0.0058  0.0000  0.0000  0.0000  0.0000  0.0000  0.0000 </r>
       </set>
      </set>
      <set comment="kpoint 90">
       <set comment="band 1">
        <r>  0.1616  0.0000  0.0000  0.0000  0.0000  0.0000  0.0000  0.0000  0.0000 </r>
        <r>  0.1616  0.0000  0.0000  0.0000  0.0000  0.0000  0.0000  0.0000  0.0000 </r>
        <r>  0.1616  0.0000  0.0000  0.0000  0.0000  0.0000  0.0000  0.0000  0.0000 </r>
        <r>  0.1616  0.0000  0.0000  0.0000  0.0000  0.0000  0.0000  0.0000  0.0000 </r>
       </set>
       <set comment="band 2">
        <r>  0.1500  0.0000  0.0000  0.0318  0.0000  0.0000  0.0000  0.0000  0.0000 </r>
        <r>  0.1500  0.0000  0.0000  0.0318  0.0000  0.0000  0.0000  0.0000  0.0000 </r>
        <r>  0.1500  0.0000  0.0000  0.0318  0.0000  0.0000  0.0000  0.0000  0.0000 </r>
        <r>  0.1500  0.0000  0.0000  0.0318  0.0000  0.0000  0.0000  0.0000  0.0000 </r>
       </set>
       <set comment="band 3">
        <r>  0.0691  0.0000  0.0000  0.0983  0.0000  0.0000  0.0000  0.0000  0.0000 </r>
        <r>  0.0691  0.0000  0.0000  0.0983  0.0000  0.0000  0.0000  0.0000  0.0000 </r>
        <r>  0.0691  0.0000  0.0000  0.0983  0.0000  0.0000  0.0000  0.0000  0.0000 </r>
        <r>  0.0691  0.0000  0.0000  0.0983  0.0000  0.0000  0.0000  0.0000  0.0000 </r>
       </set>
       <set comment="band 4">
        <r>  0.0000  0.0000  0.1080  0.0000  0.0000  0.0000  0.0000  0.0000  0.0000 </r>
        <r>  0.0000  0.0000  0.1080  0.0000  0.0000  0.0000  0.0000  0.0000  0.0000 </r>
        <r>  0.0000  0.0000  0.1080  0.0000  0.0000  0.0000  0.0000  0.0000  0.0000 </r>
        <r>  0.0000  0.0000  0.1080  0.0000  0.0000  0.0000  0.0000  0.0000  0.0000 </r>
       </set>
       <set comment="band 5">
        <r>  0.0000  0.1967  0.0000  0.0000  0.0000  0.0000  0.0000  0.0000  0.0000 </r>
        <r>  0.0000  0.1967  0.0000  0.0000  0.0000  0.0000  0.0000  0.0000  0.0000 </r>
        <r>  0.0000  0.1967  0.0000  0.0000  0.0000  0.0000  0.0000  0.0000  0.0000 </r>
        <r>  0.0000  0.1967  0.0000  0.0000  0.0000  0.0000  0.0000  0.0000  0.0000 </r>
       </set>
       <set comment="band 6">
        <r>  0.0000  0.2066  0.0000  0.0000  0.0000  0.0000  0.0000  0.0000  0.0000 </r>
        <r>  0.0000  0.2066  0.0000  0.0000  0.0000  0.0000  0.0000  0.0000  0.0000 </r>
        <r>  0.0000  0.2066  0.0000  0.0000  0.0000  0.0000  0.0000  0.0000  0.0000 </r>
        <r>  0.0000  0.2066  0.0000  0.0000  0.0000  0.0000  0.0000  0.0000  0.0000 </r>
       </set>
       <set comment="band 7">
        <r>  0.0000  0.0000  0.0000  0.2068  0.0000  0.0000  0.0000  0.0000  0.0000 </r>
        <r>  0.0000  0.0000  0.0000  0.2068  0.0000  0.0000  0.0000  0.0000  0.0000 </r>
        <r>  0.0000  0.0000  0.0000  0.2068  0.0000  0.0000  0.0000  0.0000  0.0000 </r>
        <r>  0.0000  0.0000  0.0000  0.2068  0.0000  0.0000  0.0000  0.0000  0.0000 </r>
       </set>
       <set comment="band 8">
        <r>  0.0000  0.0000  0.1280  0.0000  0.0000  0.0000  0.0000  0.0000  0.0000 </r>
        <r>  0.0000  0.0000  0.1280  0.0000  0.0000  0.0000  0.0000  0.0000  0.0000 </r>
        <r>  0.0000  0.0000  0.1280  0.0000  0.0000  0.0000  0.0000  0.0000  0.0000 </r>
        <r>  0.0000  0.0000  0.1280  0.0000  0.0000  0.0000  0.0000  0.0000  0.0000 </r>
       </set>
       <set comment="band 9">
        <r>  0.0000  0.0000  0.1124  0.0000  0.0000  0.0000  0.0000  0.0000  0.0000 </r>
        <r>  0.0000  0.0000  0.1124  0.0000  0.0000  0.0000  0.0000  0.0000  0.0000 </r>
        <r>  0.0000  0.0000  0.1124  0.0000  0.0000  0.0000  0.0000  0.0000  0.0000 </r>
        <r>  0.0000  0.0000  0.1124  0.0000  0.0000  0.0000  0.0000  0.0000  0.0000 </r>
       </set>
       <set comment="band 10">
        <r>  0.0049  0.0000  0.0000  0.0000  0.0000  0.0000  0.0000  0.0000  0.0000 </r>
        <r>  0.0049  0.0000  0.0000  0.0000  0.0000  0.0000  0.0000  0.0000  0.0000 </r>
        <r>  0.0049  0.0000  0.0000  0.0000  0.0000  0.0000  0.0000  0.0000  0.0000 </r>
        <r>  0.0049  0.0000  0.0000  0.0000  0.0000  0.0000  0.0000  0.0000  0.0000 </r>
       </set>
       <set comment="band 11">
        <r>  0.0000  0.0000  0.0055  0.0000  0.0000  0.0000  0.0000  0.0000  0.0000 </r>
        <r>  0.0000  0.0000  0.0055  0.0000  0.0000  0.0000  0.0000  0.0000  0.0000 </r>
        <r>  0.0000  0.0000  0.0055  0.0000  0.0000  0.0000  0.0000  0.0000  0.0000 </r>
        <r>  0.0000  0.0000  0.0055  0.0000  0.0000  0.0000  0.0000  0.0000  0.0000 </r>
       </set>
       <set comment="band 12">
        <r>  0.0005  0.0000  0.0000  0.0000  0.0000  0.0000  0.0000  0.0000  0.0000 </r>
        <r>  0.0005  0.0000  0.0000  0.0000  0.0000  0.0000  0.0000  0.0000  0.0000 </r>
        <r>  0.0005  0.0000  0.0000  0.0000  0.0000  0.0000  0.0000  0.0000  0.0000 </r>
        <r>  0.0005  0.0000  0.0000  0.0000  0.0000  0.0000  0.0000  0.0000  0.0000 </r>
       </set>
       <set comment="band 13">
        <r>  0.0000  0.0000  0.0042  0.0000  0.0000  0.0000  0.0000  0.0000  0.0000 </r>
        <r>  0.0000  0.0000  0.0042  0.0000  0.0000  0.0000  0.0000  0.0000  0.0000 </r>
        <r>  0.0000  0.0000  0.0042  0.0000  0.0000  0.0000  0.0000  0.0000  0.0000 </r>
        <r>  0.0000  0.0000  0.0042  0.0000  0.0000  0.0000  0.0000  0.0000  0.0000 </r>
       </set>
       <set comment="band 14">
        <r>  0.0019  0.0000  0.0000  0.0000  0.0000  0.0000  0.0000  0.0000  0.0000 </r>
        <r>  0.0019  0.0000  0.0000  0.0000  0.0000  0.0000  0.0000  0.0000  0.0000 </r>
        <r>  0.0019  0.0000  0.0000  0.0000  0.0000  0.0000  0.0000  0.0000  0.0000 </r>
        <r>  0.0019  0.0000  0.0000  0.0000  0.0000  0.0000  0.0000  0.0000  0.0000 </r>
       </set>
       <set comment="band 15">
        <r>  0.0925  0.0000  0.0000  0.0202  0.0000  0.0000  0.0000  0.0000  0.0000 </r>
        <r>  0.0925  0.0000  0.0000  0.0202  0.0000  0.0000  0.0000  0.0000  0.0000 </r>
        <r>  0.0925  0.0000  0.0000  0.0202  0.0000  0.0000  0.0000  0.0000  0.0000 </r>
        <r>  0.0925  0.0000  0.0000  0.0202  0.0000  0.0000  0.0000  0.0000  0.0000 </r>
       </set>
       <set comment="band 16">
        <r>  0.0000  0.0000  0.0063  0.0000  0.0000  0.0000  0.0000  0.0000  0.0000 </r>
        <r>  0.0000  0.0000  0.0063  0.0000  0.0000  0.0000  0.0000  0.0000  0.0000 </r>
        <r>  0.0000  0.0000  0.0063  0.0000  0.0000  0.0000  0.0000  0.0000  0.0000 </r>
        <r>  0.0000  0.0000  0.0063  0.0000  0.0000  0.0000  0.0000  0.0000  0.0000 </r>
       </set>
       <set comment="band 17">
        <r>  0.0027  0.0000  0.0000  0.0000  0.0000  0.0000  0.0000  0.0000  0.0000 </r>
        <r>  0.0027  0.0000  0.0000  0.0000  0.0000  0.0000  0.0000  0.0000  0.0000 </r>
        <r>  0.0027  0.0000  0.0000  0.0000  0.0000  0.0000  0.0000  0.0000  0.0000 </r>
        <r>  0.0027  0.0000  0.0000  0.0000  0.0000  0.0000  0.0000  0.0000  0.0000 </r>
       </set>
       <set comment="band 18">
        <r>  0.0000  0.1316  0.0000  0.0000  0.0000  0.0000  0.0000  0.0000  0.0000 </r>
        <r>  0.0000  0.1316  0.0000  0.0000  0.0000  0.0000  0.0000  0.0000  0.0000 </r>
        <r>  0.0000  0.1316  0.0000  0.0000  0.0000  0.0000  0.0000  0.0000  0.0000 </r>
        <r>  0.0000  0.1316  0.0000  0.0000  0.0000  0.0000  0.0000  0.0000  0.0000 </r>
       </set>
       <set comment="band 19">
        <r>  0.0000  0.0000  0.0000  0.1316  0.0000  0.0000  0.0000  0.0000  0.0000 </r>
        <r>  0.0000  0.0000  0.0000  0.1316  0.0000  0.0000  0.0000  0.0000  0.0000 </r>
        <r>  0.0000  0.0000  0.0000  0.1316  0.0000  0.0000  0.0000  0.0000  0.0000 </r>
        <r>  0.0000  0.0000  0.0000  0.1316  0.0000  0.0000  0.0000  0.0000  0.0000 </r>
       </set>
       <set comment="band 20">
        <r>  0.0000  0.0000  0.0088  0.0000  0.0000  0.0000  0.0000  0.0000  0.0000 </r>
        <r>  0.0000  0.0000  0.0088  0.0000  0.0000  0.0000  0.0000  0.0000  0.0000 </r>
        <r>  0.0000  0.0000  0.0088  0.0000  0.0000  0.0000  0.0000  0.0000  0.0000 </r>
        <r>  0.0000  0.0000  0.0088  0.0000  0.0000  0.0000  0.0000  0.0000  0.0000 </r>
       </set>
       <set comment="band 21">
        <r>  0.0023  0.0000  0.0000  0.0071  0.0000  0.0000  0.0000  0.0000  0.0000 </r>
        <r>  0.0023  0.0000  0.0000  0.0071  0.0000  0.0000  0.0000  0.0000  0.0000 </r>
        <r>  0.0023  0.0000  0.0000  0.0071  0.0000  0.0000  0.0000  0.0000  0.0000 </r>
        <r>  0.0023  0.0000  0.0000  0.0071  0.0000  0.0000  0.0000  0.0000  0.0000 </r>
       </set>
       <set comment="band 22">
        <r>  0.0030  0.0000  0.0000  0.0000  0.0000  0.0000  0.0000  0.0000  0.0000 </r>
        <r>  0.0030  0.0000  0.0000  0.0000  0.0000  0.0000  0.0000  0.0000  0.0000 </r>
        <r>  0.0030  0.0000  0.0000  0.0000  0.0000  0.0000  0.0000  0.0000  0.0000 </r>
        <r>  0.0030  0.0000  0.0000  0.0000  0.0000  0.0000  0.0000  0.0000  0.0000 </r>
       </set>
       <set comment="band 23">
        <r>  0.0009  0.0000  0.0000  0.0079  0.0000  0.0000  0.0000  0.0000  0.0000 </r>
        <r>  0.0009  0.0000  0.0000  0.0079  0.0000  0.0000  0.0000  0.0000  0.0000 </r>
        <r>  0.0009  0.0000  0.0000  0.0079  0.0000  0.0000  0.0000  0.0000  0.0000 </r>
        <r>  0.0009  0.0000  0.0000  0.0079  0.0000  0.0000  0.0000  0.0000  0.0000 </r>
       </set>
       <set comment="band 24">
        <r>  0.0000  0.0000  0.1958  0.0000  0.0000  0.0000  0.0000  0.0000  0.0000 </r>
        <r>  0.0000  0.0000  0.1958  0.0000  0.0000  0.0000  0.0000  0.0000  0.0000 </r>
        <r>  0.0000  0.0000  0.1958  0.0000  0.0000  0.0000  0.0000  0.0000  0.0000 </r>
        <r>  0.0000  0.0000  0.1958  0.0000  0.0000  0.0000  0.0000  0.0000  0.0000 </r>
       </set>
       <set comment="band 25">
        <r>  0.0000  0.0000  0.0188  0.0000  0.0000  0.0000  0.0000  0.0000  0.0000 </r>
        <r>  0.0000  0.0000  0.0188  0.0000  0.0000  0.0000  0.0000  0.0000  0.0000 </r>
        <r>  0.0000  0.0000  0.0188  0.0000  0.0000  0.0000  0.0000  0.0000  0.0000 </r>
        <r>  0.0000  0.0000  0.0188  0.0000  0.0000  0.0000  0.0000  0.0000  0.0000 </r>
       </set>
       <set comment="band 26">
        <r>  0.0000  0.0000  0.0058  0.0000  0.0000  0.0000  0.0000  0.0000  0.0000 </r>
        <r>  0.0000  0.0000  0.0058  0.0000  0.0000  0.0000  0.0000  0.0000  0.0000 </r>
        <r>  0.0000  0.0000  0.0058  0.0000  0.0000  0.0000  0.0000  0.0000  0.0000 </r>
        <r>  0.0000  0.0000  0.0058  0.0000  0.0000  0.0000  0.0000  0.0000  0.0000 </r>
       </set>
       <set comment="band 27">
        <r>  0.1790  0.0000  0.0000  0.0000  0.0000  0.0000  0.0000  0.0000  0.0000 </r>
        <r>  0.1790  0.0000  0.0000  0.0000  0.0000  0.0000  0.0000  0.0000  0.0000 </r>
        <r>  0.1790  0.0000  0.0000  0.0000  0.0000  0.0000  0.0000  0.0000  0.0000 </r>
        <r>  0.1790  0.0000  0.0000  0.0000  0.0000  0.0000  0.0000  0.0000  0.0000 </r>
       </set>
       <set comment="band 28">
        <r>  0.0001  0.0000  0.0000  0.0006  0.0000  0.0000  0.0000  0.0000  0.0000 </r>
        <r>  0.0001  0.0000  0.0000  0.0006  0.0000  0.0000  0.0000  0.0000  0.0000 </r>
        <r>  0.0001  0.0000  0.0000  0.0006  0.0000  0.0000  0.0000  0.0000  0.0000 </r>
        <r>  0.0001  0.0000  0.0000  0.0006  0.0000  0.0000  0.0000  0.0000  0.0000 </r>
       </set>
       <set comment="band 29">
        <r>  0.0001  0.0000  0.0000  0.0007  0.0000  0.0000  0.0000  0.0000  0.0000 </r>
        <r>  0.0001  0.0000  0.0000  0.0007  0.0000  0.0000  0.0000  0.0000  0.0000 </r>
        <r>  0.0001  0.0000  0.0000  0.0007  0.0000  0.0000  0.0000  0.0000  0.0000 </r>
        <r>  0.0001  0.0000  0.0000  0.0007  0.0000  0.0000  0.0000  0.0000  0.0000 </r>
       </set>
       <set comment="band 30">
        <r>  0.0000  0.0000  0.0088  0.0000  0.0000  0.0000  0.0000  0.0000  0.0000 </r>
        <r>  0.0000  0.0000  0.0088  0.0000  0.0000  0.0000  0.0000  0.0000  0.0000 </r>
        <r>  0.0000  0.0000  0.0088  0.0000  0.0000  0.0000  0.0000  0.0000  0.0000 </r>
        <r>  0.0000  0.0000  0.0088  0.0000  0.0000  0.0000  0.0000  0.0000  0.0000 </r>
       </set>
       <set comment="band 31">
        <r>  0.0000  0.0000  0.0035  0.0000  0.0000  0.0000  0.0000  0.0000  0.0000 </r>
        <r>  0.0000  0.0000  0.0035  0.0000  0.0000  0.0000  0.0000  0.0000  0.0000 </r>
        <r>  0.0000  0.0000  0.0035  0.0000  0.0000  0.0000  0.0000  0.0000  0.0000 </r>
        <r>  0.0000  0.0000  0.0035  0.0000  0.0000  0.0000  0.0000  0.0000  0.0000 </r>
       </set>
       <set comment="band 32">
        <r>  0.0004  0.0000  0.0000  0.0032  0.0000  0.0000  0.0000  0.0000  0.0000 </r>
        <r>  0.0004  0.0000  0.0000  0.0034  0.0000  0.0000  0.0000  0.0000  0.0000 </r>
        <r>  0.0004  0.0000  0.0000  0.0035  0.0000  0.0000  0.0000  0.0000  0.0000 </r>
        <r>  0.0004  0.0000  0.0000  0.0032  0.0000  0.0000  0.0000  0.0000  0.0000 </r>
       </set>
      </set>
     </set>
    </set>
   </array>
  </projected>
 </calculation>
 <structure name="finalpos" >
  <crystal>
   <varray name="basis" >
    <v>       4.26622041       0.00000000       0.00000000 </v>
    <v>       0.00000000       2.46518870       0.00000000 </v>
    <v>       0.00000000       0.00000000      20.00000000 </v>
   </varray>
   <i name="volume">    210.34076648 </i>
   <varray name="rec_basis" >
    <v>       0.23439952       0.00000000       0.00000000 </v>
    <v>       0.00000000       0.40564846       0.00000000 </v>
    <v>       0.00000000       0.00000000       0.05000000 </v>
   </varray>
  </crystal>
  <varray name="positions" >
   <v>       0.33334688       0.00000000       0.50000000 </v>
   <v>       0.66665312       0.00000000       0.50000000 </v>
   <v>       0.16665312       0.50000000       0.50000000 </v>
   <v>       0.83334688       0.50000000       0.50000000 </v>
  </varray>
 </structure>
</modeling>
