 written on  1Apr2018 at 07:24:10 
           8
         729
    1    1    1    1    1    1    1    1    1    1    1    1    1    1    1
    1    1    1    1    1    1    1    1    1    1    1    1    1    1    1
    1    1    1    1    1    1    1    1    1    1    1    1    1    1    1
    1    1    1    1    1    1    1    1    1    1    1    1    1    1    1
    1    1    1    1    1    1    1    1    1    1    1    1    1    1    1
    1    1    1    1    1    1    1    1    1    1    1    1    1    1    1
    1    1    1    1    1    1    1    1    1    1    1    1    1    1    1
    1    1    1    1    1    1    1    1    1    1    1    1    1    1    1
    1    1    1    1    1    1    1    1    1    1    1    1    1    1    1
    1    1    1    1    1    1    1    1    1    1    1    1    1    1    1
    1    1    1    1    1    1    1    1    1    1    1    1    1    1    1
    1    1    1    1    1    1    1    1    1    1    1    1    1    1    1
    1    1    1    1    1    1    1    1    1    1    1    1    1    1    1
    1    1    1    1    1    1    1    1    1    1    1    1    1    1    1
    1    1    1    1    1    1    1    1    1    1    1    1    1    1    1
    1    1    1    1    1    1    1    1    1    1    1    1    1    1    1
    1    1    1    1    1    1    1    1    1    1    1    1    1    1    1
    1    1    1    1    1    1    1    1    1    1    1    1    1    1    1
    1    1    1    1    1    1    1    1    1    1    1    1    1    1    1
    1    1    1    1    1    1    1    1    1    1    1    1    1    1    1
    1    1    1    1    1    1    1    1    1    1    1    1    1    1    1
    1    1    1    1    1    1    1    1    1    1    1    1    1    1    1
    1    1    1    1    1    1    1    1    1    1    1    1    1    1    1
    1    1    1    1    1    1    1    1    1    1    1    1    1    1    1
    1    1    1    1    1    1    1    1    1    1    1    1    1    1    1
    1    1    1    1    1    1    1    1    1    1    1    1    1    1    1
    1    1    1    1    1    1    1    1    1    1    1    1    1    1    1
    1    1    1    1    1    1    1    1    1    1    1    1    1    1    1
    1    1    1    1    1    1    1    1    1    1    1    1    1    1    1
    1    1    1    1    1    1    1    1    1    1    1    1    1    1    1
    1    1    1    1    1    1    1    1    1    1    1    1    1    1    1
    1    1    1    1    1    1    1    1    1    1    1    1    1    1    1
    1    1    1    1    1    1    1    1    1    1    1    1    1    1    1
    1    1    1    1    1    1    1    1    1    1    1    1    1    1    1
    1    1    1    1    1    1    1    1    1    1    1    1    1    1    1
    1    1    1    1    1    1    1    1    1    1    1    1    1    1    1
    1    1    1    1    1    1    1    1    1    1    1    1    1    1    1
    1    1    1    1    1    1    1    1    1    1    1    1    1    1    1
    1    1    1    1    1    1    1    1    1    1    1    1    1    1    1
    1    1    1    1    1    1    1    1    1    1    1    1    1    1    1
    1    1    1    1    1    1    1    1    1    1    1    1    1    1    1
    1    1    1    1    1    1    1    1    1    1    1    1    1    1    1
    1    1    1    1    1    1    1    1    1    1    1    1    1    1    1
    1    1    1    1    1    1    1    1    1    1    1    1    1    1    1
    1    1    1    1    1    1    1    1    1    1    1    1    1    1    1
    1    1    1    1    1    1    1    1    1    1    1    1    1    1    1
    1    1    1    1    1    1    1    1    1    1    1    1    1    1    1
    1    1    1    1    1    1    1    1    1    1    1    1    1    1    1
    1    1    1    1    1    1    1    1    1
   -4   -4   -4    1    1   -0.001920    0.000000
   -4   -4   -4    2    1    0.000172    0.000000
   -4   -4   -4    3    1    0.000178   -0.000033
   -4   -4   -4    4    1    0.000175    0.000033
   -4   -4   -4    5    1    0.000000    0.000000
   -4   -4   -4    6    1    0.000033    0.000033
   -4   -4   -4    7    1   -0.000033    0.000000
   -4   -4   -4    8    1    0.000000   -0.000033
   -4   -4   -4    1    2   -0.000172    0.000000
   -4   -4   -4    2    2    0.000452   -0.000000
   -4   -4   -4    3    2   -0.000088    0.000013
   -4   -4   -4    4    2   -0.000087   -0.000013
   -4   -4   -4    5    2    0.000033    0.000033
   -4   -4   -4    6    2   -0.000000   -0.000000
   -4   -4   -4    7    2    0.000012    0.000013
   -4   -4   -4    8    2    0.000013    0.000012
   -4   -4   -4    1    3   -0.000178   -0.000033
   -4   -4   -4    2    3   -0.000088   -0.000013
   -4   -4   -4    3    3    0.000447   -0.000000
   -4   -4   -4    4    3   -0.000089   -0.000012
   -4   -4   -4    5    3   -0.000033    0.000000
   -4   -4   -4    6    3   -0.000012   -0.000013
   -4   -4   -4    7    3   -0.000000   -0.000000
   -4   -4   -4    8    3   -0.000013    0.000013
   -4   -4   -4    1    4   -0.000175    0.000033
   -4   -4   -4    2    4   -0.000087    0.000013
   -4   -4   -4    3    4   -0.000089    0.000012
   -4   -4   -4    4    4    0.000449   -0.000000
   -4   -4   -4    5    4    0.000000   -0.000033
   -4   -4   -4    6    4   -0.000013   -0.000012
   -4   -4   -4    7    4    0.000013   -0.000013
   -4   -4   -4    8    4   -0.000000   -0.000000
   -4   -4   -4    1    5    0.000000   -0.000000
   -4   -4   -4    2    5   -0.000033    0.000033
   -4   -4   -4    3    5    0.000033    0.000000
   -4   -4   -4    4    5   -0.000000   -0.000033
   -4   -4   -4    5    5   -0.001920    0.000000
   -4   -4   -4    6    5    0.000172   -0.000000
   -4   -4   -4    7    5    0.000178    0.000033
   -4   -4   -4    8    5    0.000175   -0.000033
   -4   -4   -4    1    6   -0.000033    0.000033
   -4   -4   -4    2    6   -0.000000    0.000000
   -4   -4   -4    3    6   -0.000012    0.000013
   -4   -4   -4    4    6   -0.000013    0.000012
   -4   -4   -4    5    6   -0.000172   -0.000000
   -4   -4   -4    6    6    0.000452   -0.000000
   -4   -4   -4    7    6   -0.000088   -0.000013
   -4   -4   -4    8    6   -0.000087    0.000013
   -4   -4   -4    1    7    0.000033    0.000000
   -4   -4   -4    2    7    0.000012   -0.000013
   -4   -4   -4    3    7   -0.000000    0.000000
   -4   -4   -4    4    7    0.000013    0.000013
   -4   -4   -4    5    7   -0.000178    0.000033
   -4   -4   -4    6    7   -0.000088    0.000013
   -4   -4   -4    7    7    0.000447   -0.000000
   -4   -4   -4    8    7   -0.000089    0.000012
   -4   -4   -4    1    8   -0.000000   -0.000033
   -4   -4   -4    2    8    0.000013   -0.000012
   -4   -4   -4    3    8   -0.000013   -0.000013
   -4   -4   -4    4    8   -0.000000    0.000000
   -4   -4   -4    5    8   -0.000175   -0.000033
   -4   -4   -4    6    8   -0.000087   -0.000013
   -4   -4   -4    7    8   -0.000089   -0.000012
   -4   -4   -4    8    8    0.000449    0.000000
   -4   -4   -3    1    1   -0.000915   -0.000000
   -4   -4   -3    2    1    0.000658    0.000000
   -4   -4   -3    3    1   -0.000014   -0.000001
   -4   -4   -3    4    1   -0.000014    0.000001
   -4   -4   -3    5    1    0.000000    0.000000
   -4   -4   -3    6    1    0.000000    0.000000
   -4   -4   -3    7    1   -0.000124   -0.000002
   -4   -4   -3    8    1   -0.000001   -0.000124
   -4   -4   -3    1    2   -0.000658    0.000000
   -4   -4   -3    2    2    0.000349   -0.000000
   -4   -4   -3    3    2   -0.000134    0.000045
   -4   -4   -3    4    2   -0.000133   -0.000045
   -4   -4   -3    5    2    0.000000    0.000000
   -4   -4   -3    6    2   -0.000000   -0.000000
   -4   -4   -3    7    2   -0.000037    0.000017
   -4   -4   -3    8    2    0.000017   -0.000037
   -4   -4   -3    1    3    0.000014   -0.000001
   -4   -4   -3    2    3   -0.000134   -0.000045
   -4   -4   -3    3    3    0.000307    0.000000
   -4   -4   -3    4    3   -0.000081    0.000031
   -4   -4   -3    5    3   -0.000124   -0.000002
   -4   -4   -3    6    3    0.000037   -0.000017
   -4   -4   -3    7    3   -0.000000   -0.000000
   -4   -4   -3    8    3   -0.000042    0.000043
   -4   -4   -3    1    4    0.000014    0.000001
   -4   -4   -3    2    4   -0.000133    0.000045
   -4   -4   -3    3    4   -0.000081   -0.000031
   -4   -4   -3    4    4    0.000308   -0.000000
   -4   -4   -3    5    4   -0.000001   -0.000124
   -4   -4   -3    6    4   -0.000017    0.000037
   -4   -4   -3    7    4    0.000042   -0.000043
   -4   -4   -3    8    4   -0.000000   -0.000000
   -4   -4   -3    1    5    0.000000   -0.000000
   -4   -4   -3    2    5   -0.000000    0.000000
   -4   -4   -3    3    5    0.000124   -0.000002
   -4   -4   -3    4    5    0.000001   -0.000124
   -4   -4   -3    5    5   -0.000915   -0.000000
   -4   -4   -3    6    5    0.000658   -0.000000
   -4   -4   -3    7    5   -0.000014    0.000001
   -4   -4   -3    8    5   -0.000014   -0.000001
   -4   -4   -3    1    6   -0.000000    0.000000
   -4   -4   -3    2    6   -0.000000    0.000000
   -4   -4   -3    3    6    0.000037    0.000017
   -4   -4   -3    4    6   -0.000017   -0.000037
   -4   -4   -3    5    6   -0.000658   -0.000000
   -4   -4   -3    6    6    0.000349    0.000000
   -4   -4   -3    7    6   -0.000134   -0.000045
   -4   -4   -3    8    6   -0.000133    0.000045
   -4   -4   -3    1    7    0.000124   -0.000002
   -4   -4   -3    2    7   -0.000037   -0.000017
   -4   -4   -3    3    7   -0.000000    0.000000
   -4   -4   -3    4    7    0.000042    0.000043
   -4   -4   -3    5    7    0.000014    0.000001
   -4   -4   -3    6    7   -0.000134    0.000045
   -4   -4   -3    7    7    0.000307    0.000000
   -4   -4   -3    8    7   -0.000081   -0.000031
   -4   -4   -3    1    8    0.000001   -0.000124
   -4   -4   -3    2    8    0.000017    0.000037
   -4   -4   -3    3    8   -0.000042   -0.000043
   -4   -4   -3    4    8   -0.000000    0.000000
   -4   -4   -3    5    8    0.000014   -0.000001
   -4   -4   -3    6    8   -0.000133   -0.000045
   -4   -4   -3    7    8   -0.000081    0.000031
   -4   -4   -3    8    8    0.000308    0.000000
   -4   -4   -2    1    1   -0.000487    0.000000
   -4   -4   -2    2    1    0.001167   -0.000000
   -4   -4   -2    3    1    0.000049    0.000057
   -4   -4   -2    4    1    0.000048   -0.000057
   -4   -4   -2    5    1    0.000000    0.000000
   -4   -4   -2    6    1   -0.000007   -0.000007
   -4   -4   -2    7    1   -0.000256    0.000008
   -4   -4   -2    8    1    0.000009   -0.000256
   -4   -4   -2    1    2   -0.001167   -0.000000
   -4   -4   -2    2    2    0.000063    0.000000
   -4   -4   -2    3    2   -0.000005    0.000019
   -4   -4   -2    4    2   -0.000004   -0.000019
   -4   -4   -2    5    2   -0.000007   -0.000007
   -4   -4   -2    6    2   -0.000000   -0.000000
   -4   -4   -2    7    2   -0.000045   -0.000005
   -4   -4   -2    8    2   -0.000006   -0.000045
   -4   -4   -2    1    3   -0.000049    0.000057
   -4   -4   -2    2    3   -0.000005   -0.000019
   -4   -4   -2    3    3    0.000253   -0.000000
   -4   -4   -2    4    3   -0.000005    0.000162
   -4   -4   -2    5    3   -0.000256    0.000008
   -4   -4   -2    6    3    0.000045    0.000005
   -4   -4   -2    7    3    0.000000    0.000000
   -4   -4   -2    8    3   -0.000064    0.000065
   -4   -4   -2    1    4   -0.000048   -0.000057
   -4   -4   -2    2    4   -0.000004    0.000019
   -4   -4   -2    3    4   -0.000005   -0.000162
   -4   -4   -2    4    4    0.000253   -0.000000
   -4   -4   -2    5    4    0.000009   -0.000256
   -4   -4   -2    6    4    0.000006    0.000045
   -4   -4   -2    7    4    0.000064   -0.000065
   -4   -4   -2    8    4    0.000000    0.000000
   -4   -4   -2    1    5    0.000000   -0.000000
   -4   -4   -2    2    5    0.000007   -0.000007
   -4   -4   -2    3    5    0.000256    0.000008
   -4   -4   -2    4    5   -0.000009   -0.000256
   -4   -4   -2    5    5   -0.000487    0.000000
   -4   -4   -2    6    5    0.001167    0.000000
   -4   -4   -2    7    5    0.000049   -0.000057
   -4   -4   -2    8    5    0.000048    0.000057
   -4   -4   -2    1    6    0.000007   -0.000007
   -4   -4   -2    2    6   -0.000000    0.000000
   -4   -4   -2    3    6    0.000045   -0.000005
   -4   -4   -2    4    6    0.000006   -0.000045
   -4   -4   -2    5    6   -0.001167    0.000000
   -4   -4   -2    6    6    0.000063    0.000000
   -4   -4   -2    7    6   -0.000005   -0.000019
   -4   -4   -2    8    6   -0.000004    0.000019
   -4   -4   -2    1    7    0.000256    0.000008
   -4   -4   -2    2    7   -0.000045    0.000005
   -4   -4   -2    3    7    0.000000   -0.000000
   -4   -4   -2    4    7    0.000064    0.000065
   -4   -4   -2    5    7   -0.000049   -0.000057
   -4   -4   -2    6    7   -0.000005    0.000019
   -4   -4   -2    7    7    0.000253   -0.000000
   -4   -4   -2    8    7   -0.000005   -0.000162
   -4   -4   -2    1    8   -0.000009   -0.000256
   -4   -4   -2    2    8   -0.000006    0.000045
   -4   -4   -2    3    8   -0.000064   -0.000065
   -4   -4   -2    4    8    0.000000   -0.000000
   -4   -4   -2    5    8   -0.000048    0.000057
   -4   -4   -2    6    8   -0.000004   -0.000019
   -4   -4   -2    7    8   -0.000005    0.000162
   -4   -4   -2    8    8    0.000253    0.000000
   -4   -4   -1    1    1   -0.001506    0.000000
   -4   -4   -1    2    1    0.001110   -0.000000
   -4   -4   -1    3    1    0.000461   -0.000055
   -4   -4   -1    4    1    0.000457    0.000056
   -4   -4   -1    5    1    0.000000    0.000000
   -4   -4   -1    6    1    0.000018    0.000018
   -4   -4   -1    7    1   -0.000240    0.000004
   -4   -4   -1    8    1    0.000005   -0.000240
   -4   -4   -1    1    2   -0.001110   -0.000000
   -4   -4   -1    2    2   -0.000422   -0.000000
   -4   -4   -1    3    2    0.000111   -0.000023
   -4   -4   -1    4    2    0.000110    0.000024
   -4   -4   -1    5    2    0.000018    0.000018
   -4   -4   -1    6    2    0.000000    0.000000
   -4   -4   -1    7    2   -0.000029   -0.000046
   -4   -4   -1    8    2   -0.000046   -0.000028
   -4   -4   -1    1    3   -0.000461   -0.000055
   -4   -4   -1    2    3    0.000111    0.000023
   -4   -4   -1    3    3    0.001248   -0.000000
   -4   -4   -1    4    3    0.000067    0.000311
   -4   -4   -1    5    3   -0.000240    0.000004
   -4   -4   -1    6    3    0.000029    0.000046
   -4   -4   -1    7    3    0.000000    0.000000
   -4   -4   -1    8    3   -0.000049    0.000050
   -4   -4   -1    1    4   -0.000457    0.000056
   -4   -4   -1    2    4    0.000110   -0.000024
   -4   -4   -1    3    4    0.000067   -0.000311
   -4   -4   -1    4    4    0.001246   -0.000000
   -4   -4   -1    5    4    0.000005   -0.000240
   -4   -4   -1    6    4    0.000046    0.000028
   -4   -4   -1    7    4    0.000049   -0.000050
   -4   -4   -1    8    4    0.000000    0.000000
   -4   -4   -1    1    5    0.000000   -0.000000
   -4   -4   -1    2    5   -0.000018    0.000018
   -4   -4   -1    3    5    0.000240    0.000004
   -4   -4   -1    4    5   -0.000005   -0.000240
   -4   -4   -1    5    5   -0.001506    0.000000
   -4   -4   -1    6    5    0.001110    0.000000
   -4   -4   -1    7    5    0.000461    0.000055
   -4   -4   -1    8    5    0.000457   -0.000056
   -4   -4   -1    1    6   -0.000018    0.000018
   -4   -4   -1    2    6    0.000000   -0.000000
   -4   -4   -1    3    6    0.000029   -0.000046
   -4   -4   -1    4    6    0.000046   -0.000028
   -4   -4   -1    5    6   -0.001110    0.000000
   -4   -4   -1    6    6   -0.000422    0.000000
   -4   -4   -1    7    6    0.000111    0.000023
   -4   -4   -1    8    6    0.000110   -0.000024
   -4   -4   -1    1    7    0.000240    0.000004
   -4   -4   -1    2    7   -0.000029    0.000046
   -4   -4   -1    3    7    0.000000   -0.000000
   -4   -4   -1    4    7    0.000049    0.000050
   -4   -4   -1    5    7   -0.000461    0.000055
   -4   -4   -1    6    7    0.000111   -0.000023
   -4   -4   -1    7    7    0.001248    0.000000
   -4   -4   -1    8    7    0.000067   -0.000311
   -4   -4   -1    1    8   -0.000005   -0.000240
   -4   -4   -1    2    8   -0.000046    0.000028
   -4   -4   -1    3    8   -0.000049   -0.000050
   -4   -4   -1    4    8    0.000000   -0.000000
   -4   -4   -1    5    8   -0.000457   -0.000056
   -4   -4   -1    6    8    0.000110    0.000024
   -4   -4   -1    7    8    0.000067    0.000311
   -4   -4   -1    8    8    0.001246    0.000000
   -4   -4    0    1    1   -0.002434    0.000000
   -4   -4    0    2    1    0.000013   -0.000000
   -4   -4    0    3    1    0.000654   -0.000104
   -4   -4    0    4    1    0.000650    0.000105
   -4   -4    0    5    1    0.000000    0.000000
   -4   -4    0    6    1    0.000027    0.000027
   -4   -4    0    7    1    0.000013   -0.000008
   -4   -4    0    8    1   -0.000008    0.000014
   -4   -4    0    1    2   -0.000013   -0.000000
   -4   -4    0    2    2   -0.000716    0.000000
   -4   -4    0    3    2    0.000025    0.000002
   -4   -4    0    4    2    0.000025   -0.000002
   -4   -4    0    5    2    0.000027    0.000027
   -4   -4    0    6    2    0.000000    0.000000
   -4   -4    0    7    2   -0.000023   -0.000055
   -4   -4    0    8    2   -0.000056   -0.000022
   -4   -4    0    1    3   -0.000654   -0.000104
   -4   -4    0    2    3    0.000025   -0.000002
   -4   -4    0    3    3    0.001510   -0.000000
   -4   -4    0    4    3    0.000215    0.000278
   -4   -4    0    5    3    0.000013   -0.000008
   -4   -4    0    6    3    0.000023    0.000055
   -4   -4    0    7    3   -0.000000   -0.000000
   -4   -4    0    8    3   -0.000010    0.000010
   -4   -4    0    1    4   -0.000650    0.000105
   -4   -4    0    2    4    0.000025    0.000002
   -4   -4    0    3    4    0.000215   -0.000278
   -4   -4    0    4    4    0.001506    0.000000
   -4   -4    0    5    4   -0.000008    0.000014
   -4   -4    0    6    4    0.000056    0.000022
   -4   -4    0    7    4    0.000010   -0.000010
   -4   -4    0    8    4   -0.000000   -0.000000
   -4   -4    0    1    5    0.000000   -0.000000
   -4   -4    0    2    5   -0.000027    0.000027
   -4   -4    0    3    5   -0.000013   -0.000008
   -4   -4    0    4    5    0.000008    0.000014
   -4   -4    0    5    5   -0.002434    0.000000
   -4   -4    0    6    5    0.000013    0.000000
   -4   -4    0    7    5    0.000654    0.000104
   -4   -4    0    8    5    0.000650   -0.000105
   -4   -4    0    1    6   -0.000027    0.000027
   -4   -4    0    2    6    0.000000   -0.000000
   -4   -4    0    3    6    0.000023   -0.000055
   -4   -4    0    4    6    0.000056   -0.000022
   -4   -4    0    5    6   -0.000013    0.000000
   -4   -4    0    6    6   -0.000716   -0.000000
   -4   -4    0    7    6    0.000025   -0.000002
   -4   -4    0    8    6    0.000025    0.000002
   -4   -4    0    1    7   -0.000013   -0.000008
   -4   -4    0    2    7   -0.000023    0.000055
   -4   -4    0    3    7   -0.000000    0.000000
   -4   -4    0    4    7    0.000010    0.000010
   -4   -4    0    5    7   -0.000654    0.000104
   -4   -4    0    6    7    0.000025    0.000002
   -4   -4    0    7    7    0.001510   -0.000000
   -4   -4    0    8    7    0.000215   -0.000278
   -4   -4    0    1    8    0.000008    0.000014
   -4   -4    0    2    8   -0.000056    0.000022
   -4   -4    0    3    8   -0.000010   -0.000010
   -4   -4    0    4    8   -0.000000    0.000000
   -4   -4    0    5    8   -0.000650   -0.000105
   -4   -4    0    6    8    0.000025   -0.000002
   -4   -4    0    7    8    0.000215    0.000278
   -4   -4    0    8    8    0.001506   -0.000000
   -4   -4    1    1    1   -0.001574    0.000000
   -4   -4    1    2    1   -0.001105    0.000000
   -4   -4    1    3    1    0.000389   -0.000039
   -4   -4    1    4    1    0.000387    0.000039
   -4   -4    1    5    1    0.000000    0.000000
   -4   -4    1    6    1    0.000007    0.000007
   -4   -4    1    7    1    0.000245   -0.000006
   -4   -4    1    8    1   -0.000006    0.000245
   -4   -4    1    1    2    0.001105    0.000000
   -4   -4    1    2    2   -0.000453    0.000000
   -4   -4    1    3    2   -0.000047    0.000016
   -4   -4    1    4    2   -0.000047   -0.000016
   -4   -4    1    5    2    0.000007    0.000007
   -4   -4    1    6    2    0.000000    0.000000
   -4   -4    1    7    2   -0.000022   -0.000052
   -4   -4    1    8    2   -0.000052   -0.000021
   -4   -4    1    1    3   -0.000389   -0.000039
   -4   -4    1    2    3   -0.000047   -0.000016
   -4   -4    1    3    3    0.001136   -0.000000
   -4   -4    1    4    3    0.000237    0.000286
   -4   -4    1    5    3    0.000245   -0.000006
   -4   -4    1    6    3    0.000022    0.000052
   -4   -4    1    7    3    0.000000    0.000000
   -4   -4    1    8    3    0.000021   -0.000021
   -4   -4    1    1    4   -0.000387    0.000039
   -4   -4    1    2    4   -0.000047    0.000016
   -4   -4    1    3    4    0.000237   -0.000286
   -4   -4    1    4    4    0.001130   -0.000000
   -4   -4    1    5    4   -0.000006    0.000245
   -4   -4    1    6    4    0.000052    0.000021
   -4   -4    1    7    4   -0.000021    0.000021
   -4   -4    1    8    4    0.000000    0.000000
   -4   -4    1    1    5    0.000000   -0.000000
   -4   -4    1    2    5   -0.000007    0.000007
   -4   -4    1    3    5   -0.000245   -0.000006
   -4   -4    1    4    5    0.000006    0.000245
   -4   -4    1    5    5   -0.001574    0.000000
   -4   -4    1    6    5   -0.001105   -0.000000
   -4   -4    1    7    5    0.000389    0.000039
   -4   -4    1    8    5    0.000387   -0.000039
   -4   -4    1    1    6   -0.000007    0.000007
   -4   -4    1    2    6    0.000000   -0.000000
   -4   -4    1    3    6    0.000022   -0.000052
   -4   -4    1    4    6    0.000052   -0.000021
   -4   -4    1    5    6    0.001105   -0.000000
   -4   -4    1    6    6   -0.000453    0.000000
   -4   -4    1    7    6   -0.000047   -0.000016
   -4   -4    1    8    6   -0.000047    0.000016
   -4   -4    1    1    7   -0.000245   -0.000006
   -4   -4    1    2    7   -0.000022    0.000052
   -4   -4    1    3    7    0.000000   -0.000000
   -4   -4    1    4    7   -0.000021   -0.000021
   -4   -4    1    5    7   -0.000389    0.000039
   -4   -4    1    6    7   -0.000047    0.000016
   -4   -4    1    7    7    0.001136   -0.000000
   -4   -4    1    8    7    0.000237   -0.000286
   -4   -4    1    1    8    0.000006    0.000245
   -4   -4    1    2    8   -0.000052    0.000021
   -4   -4    1    3    8    0.000021    0.000021
   -4   -4    1    4    8    0.000000   -0.000000
   -4   -4    1    5    8   -0.000387   -0.000039
   -4   -4    1    6    8   -0.000047   -0.000016
   -4   -4    1    7    8    0.000237    0.000286
   -4   -4    1    8    8    0.001130   -0.000000
   -4   -4    2    1    1   -0.000535   -0.000000
   -4   -4    2    2    1   -0.001195    0.000000
   -4   -4    2    3    1    0.000040    0.000074
   -4   -4    2    4    1    0.000040   -0.000075
   -4   -4    2    5    1    0.000000    0.000000
   -4   -4    2    6    1   -0.000016   -0.000015
   -4   -4    2    7    1    0.000258   -0.000008
   -4   -4    2    8    1   -0.000008    0.000258
   -4   -4    2    1    2    0.001195    0.000000
   -4   -4    2    2    2    0.000013   -0.000000
   -4   -4    2    3    2    0.000028   -0.000022
   -4   -4    2    4    2    0.000027    0.000022
   -4   -4    2    5    2   -0.000016   -0.000015
   -4   -4    2    6    2    0.000000    0.000000
   -4   -4    2    7    2   -0.000025   -0.000013
   -4   -4    2    8    2   -0.000013   -0.000025
   -4   -4    2    1    3   -0.000040    0.000074
   -4   -4    2    2    3    0.000028    0.000022
   -4   -4    2    3    3    0.000243    0.000000
   -4   -4    2    4    3   -0.000048    0.000177
   -4   -4    2    5    3    0.000258   -0.000008
   -4   -4    2    6    3    0.000025    0.000013
   -4   -4    2    7    3    0.000000    0.000000
   -4   -4    2    8    3    0.000057   -0.000058
   -4   -4    2    1    4   -0.000040   -0.000075
   -4   -4    2    2    4    0.000027   -0.000022
   -4   -4    2    3    4   -0.000048   -0.000177
   -4   -4    2    4    4    0.000244   -0.000000
   -4   -4    2    5    4   -0.000008    0.000258
   -4   -4    2    6    4    0.000013    0.000025
   -4   -4    2    7    4   -0.000057    0.000058
   -4   -4    2    8    4    0.000000    0.000000
   -4   -4    2    1    5    0.000000   -0.000000
   -4   -4    2    2    5    0.000016   -0.000015
   -4   -4    2    3    5   -0.000258   -0.000008
   -4   -4    2    4    5    0.000008    0.000258
   -4   -4    2    5    5   -0.000535   -0.000000
   -4   -4    2    6    5   -0.001195   -0.000000
   -4   -4    2    7    5    0.000040   -0.000074
   -4   -4    2    8    5    0.000040    0.000075
   -4   -4    2    1    6    0.000016   -0.000015
   -4   -4    2    2    6    0.000000   -0.000000
   -4   -4    2    3    6    0.000025   -0.000013
   -4   -4    2    4    6    0.000013   -0.000025
   -4   -4    2    5    6    0.001195   -0.000000
   -4   -4    2    6    6    0.000013    0.000000
   -4   -4    2    7    6    0.000028    0.000022
   -4   -4    2    8    6    0.000027   -0.000022
   -4   -4    2    1    7   -0.000258   -0.000008
   -4   -4    2    2    7   -0.000025    0.000013
   -4   -4    2    3    7    0.000000   -0.000000
   -4   -4    2    4    7   -0.000057   -0.000058
   -4   -4    2    5    7   -0.000040   -0.000074
   -4   -4    2    6    7    0.000028   -0.000022
   -4   -4    2    7    7    0.000243   -0.000000
   -4   -4    2    8    7   -0.000048   -0.000177
   -4   -4    2    1    8    0.000008    0.000258
   -4   -4    2    2    8   -0.000013    0.000025
   -4   -4    2    3    8    0.000057    0.000058
   -4   -4    2    4    8    0.000000   -0.000000
   -4   -4    2    5    8   -0.000040    0.000075
   -4   -4    2    6    8    0.000027    0.000022
   -4   -4    2    7    8   -0.000048    0.000177
   -4   -4    2    8    8    0.000244    0.000000
   -4   -4    3    1    1   -0.000969   -0.000000
   -4   -4    3    2    1   -0.000728    0.000000
   -4   -4    3    3    1    0.000007    0.000026
   -4   -4    3    4    1    0.000007   -0.000027
   -4   -4    3    5    1    0.000000    0.000000
   -4   -4    3    6    1   -0.000000   -0.000000
   -4   -4    3    7    1    0.000134    0.000001
   -4   -4    3    8    1    0.000001    0.000134
   -4   -4    3    1    2    0.000728    0.000000
   -4   -4    3    2    2    0.000311   -0.000000
   -4   -4    3    3    2    0.000125   -0.000044
   -4   -4    3    4    2    0.000124    0.000045
   -4   -4    3    5    2   -0.000000   -0.000000
   -4   -4    3    6    2   -0.000000   -0.000000
   -4   -4    3    7    2   -0.000021    0.000015
   -4   -4    3    8    2    0.000015   -0.000021
   -4   -4    3    1    3   -0.000007    0.000026
   -4   -4    3    2    3    0.000125    0.000044
   -4   -4    3    3    3    0.000233    0.000000
   -4   -4    3    4    3   -0.000056    0.000037
   -4   -4    3    5    3    0.000134    0.000001
   -4   -4    3    6    3    0.000021   -0.000015
   -4   -4    3    7    3   -0.000000   -0.000000
   -4   -4    3    8    3    0.000059   -0.000060
   -4   -4    3    1    4   -0.000007   -0.000027
   -4   -4    3    2    4    0.000124   -0.000045
   -4   -4    3    3    4   -0.000056   -0.000037
   -4   -4    3    4    4    0.000234    0.000000
   -4   -4    3    5    4    0.000001    0.000134
   -4   -4    3    6    4   -0.000015    0.000021
   -4   -4    3    7    4   -0.000059    0.000060
   -4   -4    3    8    4   -0.000000   -0.000000
   -4   -4    3    1    5    0.000000   -0.000000
   -4   -4    3    2    5    0.000000   -0.000000
   -4   -4    3    3    5   -0.000134    0.000001
   -4   -4    3    4    5   -0.000001    0.000134
   -4   -4    3    5    5   -0.000969   -0.000000
   -4   -4    3    6    5   -0.000728   -0.000000
   -4   -4    3    7    5    0.000007   -0.000026
   -4   -4    3    8    5    0.000007    0.000027
   -4   -4    3    1    6    0.000000   -0.000000
   -4   -4    3    2    6   -0.000000    0.000000
   -4   -4    3    3    6    0.000021    0.000015
   -4   -4    3    4    6   -0.000015   -0.000021
   -4   -4    3    5    6    0.000728   -0.000000
   -4   -4    3    6    6    0.000311    0.000000
   -4   -4    3    7    6    0.000125    0.000044
   -4   -4    3    8    6    0.000124   -0.000045
   -4   -4    3    1    7   -0.000134    0.000001
   -4   -4    3    2    7   -0.000021   -0.000015
   -4   -4    3    3    7   -0.000000    0.000000
   -4   -4    3    4    7   -0.000059   -0.000060
   -4   -4    3    5    7   -0.000007   -0.000026
   -4   -4    3    6    7    0.000125   -0.000044
   -4   -4    3    7    7    0.000233   -0.000000
   -4   -4    3    8    7   -0.000056   -0.000037
   -4   -4    3    1    8   -0.000001    0.000134
   -4   -4    3    2    8    0.000015    0.000021
   -4   -4    3    3    8    0.000059    0.000060
   -4   -4    3    4    8   -0.000000    0.000000
   -4   -4    3    5    8   -0.000007    0.000027
   -4   -4    3    6    8    0.000124    0.000045
   -4   -4    3    7    8   -0.000056    0.000037
   -4   -4    3    8    8    0.000234    0.000000
   -4   -4    4    1    1   -0.001949    0.000000
   -4   -4    4    2    1   -0.000281    0.000000
   -4   -4    4    3    1    0.000244   -0.000022
   -4   -4    4    4    1    0.000241    0.000022
   -4   -4    4    5    1    0.000000    0.000000
   -4   -4    4    6    1    0.000036    0.000036
   -4   -4    4    7    1    0.000022    0.000008
   -4   -4    4    8    1    0.000008    0.000022
   -4   -4    4    1    2    0.000281    0.000000
   -4   -4    4    2    2    0.000441    0.000000
   -4   -4    4    3    2    0.000021   -0.000016
   -4   -4    4    4    2    0.000020    0.000016
   -4   -4    4    5    2    0.000036    0.000036
   -4   -4    4    6    2   -0.000000   -0.000000
   -4   -4    4    7    2    0.000016    0.000014
   -4   -4    4    8    2    0.000014    0.000015
   -4   -4    4    1    3   -0.000244   -0.000022
   -4   -4    4    2    3    0.000021    0.000016
   -4   -4    4    3    3    0.000387    0.000000
   -4   -4    4    4    3   -0.000042   -0.000025
   -4   -4    4    5    3    0.000022    0.000008
   -4   -4    4    6    3   -0.000016   -0.000014
   -4   -4    4    7    3   -0.000000    0.000000
   -4   -4    4    8    3    0.000022   -0.000023
   -4   -4    4    1    4   -0.000241    0.000022
   -4   -4    4    2    4    0.000020   -0.000016
   -4   -4    4    3    4   -0.000042    0.000025
   -4   -4    4    4    4    0.000388   -0.000000
   -4   -4    4    5    4    0.000008    0.000022
   -4   -4    4    6    4   -0.000014   -0.000015
   -4   -4    4    7    4   -0.000022    0.000023
   -4   -4    4    8    4    0.000000   -0.000000
   -4   -4    4    1    5    0.000000   -0.000000
   -4   -4    4    2    5   -0.000036    0.000036
   -4   -4    4    3    5   -0.000022    0.000008
   -4   -4    4    4    5   -0.000008    0.000022
   -4   -4    4    5    5   -0.001949    0.000000
   -4   -4    4    6    5   -0.000281   -0.000000
   -4   -4    4    7    5    0.000244    0.000022
   -4   -4    4    8    5    0.000241   -0.000022
   -4   -4    4    1    6   -0.000036    0.000036
   -4   -4    4    2    6   -0.000000    0.000000
   -4   -4    4    3    6   -0.000016    0.000014
   -4   -4    4    4    6   -0.000014    0.000015
   -4   -4    4    5    6    0.000281   -0.000000
   -4   -4    4    6    6    0.000441   -0.000000
   -4   -4    4    7    6    0.000021    0.000016
   -4   -4    4    8    6    0.000020   -0.000016
   -4   -4    4    1    7   -0.000022    0.000008
   -4   -4    4    2    7    0.000016   -0.000014
   -4   -4    4    3    7   -0.000000   -0.000000
   -4   -4    4    4    7   -0.000022   -0.000023
   -4   -4    4    5    7   -0.000244    0.000022
   -4   -4    4    6    7    0.000021   -0.000016
   -4   -4    4    7    7    0.000387   -0.000000
   -4   -4    4    8    7   -0.000042    0.000025
   -4   -4    4    1    8   -0.000008    0.000022
   -4   -4    4    2    8    0.000014   -0.000015
   -4   -4    4    3    8    0.000022    0.000023
   -4   -4    4    4    8    0.000000    0.000000
   -4   -4    4    5    8   -0.000241   -0.000022
   -4   -4    4    6    8    0.000020    0.000016
   -4   -4    4    7    8   -0.000042   -0.000025
   -4   -4    4    8    8    0.000388    0.000000
   -4   -3   -4    1    1   -0.000915    0.000000
   -4   -3   -4    2    1   -0.000022   -0.000001
   -4   -3   -4    3    1   -0.000013   -0.000124
   -4   -3   -4    4    1    0.000658    0.000000
   -4   -3   -4    5    1    0.000000    0.000000
   -4   -3   -4    6    1    0.000001    0.000124
   -4   -3   -4    7    1    0.000001    0.000002
   -4   -3   -4    8    1    0.000000    0.000001
   -4   -3   -4    1    2    0.000022   -0.000001
   -4   -3   -4    2    2    0.000313    0.000000
   -4   -3   -4    3    2   -0.000080    0.000042
   -4   -3   -4    4    2   -0.000136   -0.000017
   -4   -3   -4    5    2    0.000001    0.000124
   -4   -3   -4    6    2   -0.000000   -0.000000
   -4   -3   -4    7    2   -0.000032    0.000043
   -4   -3   -4    8    2    0.000045   -0.000037
   -4   -3   -4    1    3    0.000013   -0.000124
   -4   -3   -4    2    3   -0.000080   -0.000042
   -4   -3   -4    3    3    0.000307    0.000000
   -4   -3   -4    4    3   -0.000135    0.000036
   -4   -3   -4    5    3    0.000001    0.000002
   -4   -3   -4    6    3    0.000032   -0.000043
   -4   -3   -4    7    3   -0.000000   -0.000000
   -4   -3   -4    8    3   -0.000045    0.000017
   -4   -3   -4    1    4   -0.000658    0.000000
   -4   -3   -4    2    4   -0.000136    0.000017
   -4   -3   -4    3    4   -0.000135   -0.000036
   -4   -3   -4    4    4    0.000345   -0.000000
   -4   -3   -4    5    4    0.000000    0.000001
   -4   -3   -4    6    4   -0.000045    0.000037
   -4   -3   -4    7    4    0.000045   -0.000017
   -4   -3   -4    8    4   -0.000000   -0.000000
   -4   -3   -4    1    5    0.000000   -0.000000
   -4   -3   -4    2    5   -0.000001    0.000124
   -4   -3   -4    3    5   -0.000001    0.000002
   -4   -3   -4    4    5   -0.000000    0.000001
   -4   -3   -4    5    5   -0.000915    0.000000
   -4   -3   -4    6    5   -0.000022    0.000001
   -4   -3   -4    7    5   -0.000013    0.000124
   -4   -3   -4    8    5    0.000658   -0.000000
   -4   -3   -4    1    6   -0.000001    0.000124
   -4   -3   -4    2    6   -0.000000    0.000000
   -4   -3   -4    3    6    0.000032    0.000043
   -4   -3   -4    4    6   -0.000045   -0.000037
   -4   -3   -4    5    6    0.000022    0.000001
   -4   -3   -4    6    6    0.000313   -0.000000
   -4   -3   -4    7    6   -0.000080   -0.000042
   -4   -3   -4    8    6   -0.000136    0.000017
   -4   -3   -4    1    7   -0.000001    0.000002
   -4   -3   -4    2    7   -0.000032   -0.000043
   -4   -3   -4    3    7   -0.000000    0.000000
   -4   -3   -4    4    7    0.000045    0.000017
   -4   -3   -4    5    7    0.000013    0.000124
   -4   -3   -4    6    7   -0.000080    0.000042
   -4   -3   -4    7    7    0.000307   -0.000000
   -4   -3   -4    8    7   -0.000135   -0.000036
   -4   -3   -4    1    8   -0.000000    0.000001
   -4   -3   -4    2    8    0.000045    0.000037
   -4   -3   -4    3    8   -0.000045   -0.000017
   -4   -3   -4    4    8   -0.000000    0.000000
   -4   -3   -4    5    8   -0.000658   -0.000000
   -4   -3   -4    6    8   -0.000136   -0.000017
   -4   -3   -4    7    8   -0.000135    0.000036
   -4   -3   -4    8    8    0.000345   -0.000000
   -4   -3   -3    1    1   -0.000685    0.000000
   -4   -3   -3    2    1    0.000124    0.000007
   -4   -3   -3    3    1    0.000103   -0.000015
   -4   -3   -3    4    1    0.000124    0.000029
   -4   -3   -3    5    1    0.000000    0.000000
   -4   -3   -3    6    1    0.000029    0.000037
   -4   -3   -3    7    1   -0.000015   -0.000000
   -4   -3   -3    8    1    0.000007   -0.000037
   -4   -3   -3    1    2   -0.000124    0.000007
   -4   -3   -3    2    2    0.000206    0.000000
   -4   -3   -3    3    2   -0.000120    0.000113
   -4   -3   -3    4    2   -0.000127   -0.000027
   -4   -3   -3    5    2    0.000029    0.000037
   -4   -3   -3    6    2   -0.000000   -0.000000
   -4   -3   -3    7    2   -0.000033    0.000034
   -4   -3   -3    8    2    0.000028   -0.000031
   -4   -3   -3    1    3   -0.000103   -0.000015
   -4   -3   -3    2    3   -0.000120   -0.000113
   -4   -3   -3    3    3    0.000127   -0.000000
   -4   -3   -3    4    3   -0.000121    0.000031
   -4   -3   -3    5    3   -0.000015   -0.000000
   -4   -3   -3    6    3    0.000033   -0.000034
   -4   -3   -3    7    3   -0.000000   -0.000000
   -4   -3   -3    8    3   -0.000113    0.000033
   -4   -3   -3    1    4   -0.000124    0.000029
   -4   -3   -3    2    4   -0.000127    0.000027
   -4   -3   -3    3    4   -0.000121   -0.000031
   -4   -3   -3    4    4    0.000198    0.000000
   -4   -3   -3    5    4    0.000007   -0.000037
   -4   -3   -3    6    4   -0.000028    0.000031
   -4   -3   -3    7    4    0.000113   -0.000033
   -4   -3   -3    8    4    0.000000    0.000000
   -4   -3   -3    1    5    0.000000   -0.000000
   -4   -3   -3    2    5   -0.000029    0.000037
   -4   -3   -3    3    5    0.000015   -0.000000
   -4   -3   -3    4    5   -0.000007   -0.000037
   -4   -3   -3    5    5   -0.000685   -0.000000
   -4   -3   -3    6    5    0.000124   -0.000007
   -4   -3   -3    7    5    0.000103    0.000015
   -4   -3   -3    8    5    0.000124   -0.000029
   -4   -3   -3    1    6   -0.000029    0.000037
   -4   -3   -3    2    6   -0.000000    0.000000
   -4   -3   -3    3    6    0.000033    0.000034
   -4   -3   -3    4    6   -0.000028   -0.000031
   -4   -3   -3    5    6   -0.000124   -0.000007
   -4   -3   -3    6    6    0.000206   -0.000000
   -4   -3   -3    7    6   -0.000120   -0.000113
   -4   -3   -3    8    6   -0.000127    0.000027
   -4   -3   -3    1    7    0.000015   -0.000000
   -4   -3   -3    2    7   -0.000033   -0.000034
   -4   -3   -3    3    7   -0.000000    0.000000
   -4   -3   -3    4    7    0.000113    0.000033
   -4   -3   -3    5    7   -0.000103    0.000015
   -4   -3   -3    6    7   -0.000120    0.000113
   -4   -3   -3    7    7    0.000127    0.000000
   -4   -3   -3    8    7   -0.000121   -0.000031
   -4   -3   -3    1    8   -0.000007   -0.000037
   -4   -3   -3    2    8    0.000028    0.000031
   -4   -3   -3    3    8   -0.000113   -0.000033
   -4   -3   -3    4    8    0.000000   -0.000000
   -4   -3   -3    5    8   -0.000124   -0.000029
   -4   -3   -3    6    8   -0.000127   -0.000027
   -4   -3   -3    7    8   -0.000121    0.000031
   -4   -3   -3    8    8    0.000198   -0.000000
   -4   -3   -2    1    1   -0.000576    0.000000
   -4   -3   -2    2    1    0.000589    0.000002
   -4   -3   -2    3    1   -0.000012    0.000135
   -4   -3   -2    4    1    0.000050   -0.000024
   -4   -3   -2    5    1    0.000000    0.000000
   -4   -3   -2    6    1    0.000038   -0.000024
   -4   -3   -2    7    1   -0.000080    0.000025
   -4   -3   -2    8    1    0.000020   -0.000112
   -4   -3   -2    1    2   -0.000589    0.000002
   -4   -3   -2    2    2    0.000041   -0.000000
   -4   -3   -2    3    2    0.000071    0.000043
   -4   -3   -2    4    2    0.000333    0.000003
   -4   -3   -2    5    2    0.000038   -0.000024
   -4   -3   -2    6    2    0.000000   -0.000000
   -4   -3   -2    7    2   -0.000040   -0.000004
   -4   -3   -2    8    2   -0.000013   -0.000018
   -4   -3   -2    1    3    0.000012    0.000135
   -4   -3   -2    2    3    0.000071   -0.000043
   -4   -3   -2    3    3    0.000337   -0.000000
   -4   -3   -2    4    3   -0.000068    0.000099
   -4   -3   -2    5    3   -0.000080    0.000025
   -4   -3   -2    6    3    0.000040    0.000004
   -4   -3   -2    7    3   -0.000000    0.000000
   -4   -3   -2    8    3   -0.000114    0.000016
   -4   -3   -2    1    4   -0.000050   -0.000024
   -4   -3   -2    2    4    0.000333   -0.000003
   -4   -3   -2    3    4   -0.000068   -0.000099
   -4   -3   -2    4    4    0.000252   -0.000000
   -4   -3   -2    5    4    0.000020   -0.000112
   -4   -3   -2    6    4    0.000013    0.000018
   -4   -3   -2    7    4    0.000114   -0.000016
   -4   -3   -2    8    4    0.000000    0.000000
   -4   -3   -2    1    5    0.000000   -0.000000
   -4   -3   -2    2    5   -0.000038   -0.000024
   -4   -3   -2    3    5    0.000080    0.000025
   -4   -3   -2    4    5   -0.000020   -0.000112
   -4   -3   -2    5    5   -0.000576    0.000000
   -4   -3   -2    6    5    0.000589   -0.000002
   -4   -3   -2    7    5   -0.000012   -0.000135
   -4   -3   -2    8    5    0.000050    0.000024
   -4   -3   -2    1    6   -0.000038   -0.000024
   -4   -3   -2    2    6    0.000000    0.000000
   -4   -3   -2    3    6    0.000040   -0.000004
   -4   -3   -2    4    6    0.000013   -0.000018
   -4   -3   -2    5    6   -0.000589   -0.000002
   -4   -3   -2    6    6    0.000041   -0.000000
   -4   -3   -2    7    6    0.000071   -0.000043
   -4   -3   -2    8    6    0.000333   -0.000003
   -4   -3   -2    1    7    0.000080    0.000025
   -4   -3   -2    2    7   -0.000040    0.000004
   -4   -3   -2    3    7   -0.000000   -0.000000
   -4   -3   -2    4    7    0.000114    0.000016
   -4   -3   -2    5    7    0.000012   -0.000135
   -4   -3   -2    6    7    0.000071    0.000043
   -4   -3   -2    7    7    0.000337   -0.000000
   -4   -3   -2    8    7   -0.000068   -0.000099
   -4   -3   -2    1    8   -0.000020   -0.000112
   -4   -3   -2    2    8   -0.000013    0.000018
   -4   -3   -2    3    8   -0.000114   -0.000016
   -4   -3   -2    4    8    0.000000   -0.000000
   -4   -3   -2    5    8   -0.000050    0.000024
   -4   -3   -2    6    8    0.000333    0.000003
   -4   -3   -2    7    8   -0.000068    0.000099
   -4   -3   -2    8    8    0.000252   -0.000000
   -4   -3   -1    1    1   -0.001931    0.000000
   -4   -3   -1    2    1    0.000855   -0.000008
   -4   -3   -1    3    1    0.000576   -0.000075
   -4   -3   -1    4    1    0.001145    0.000015
   -4   -3   -1    5    1   -0.000000   -0.000000
   -4   -3   -1    6    1    0.000047   -0.000033
   -4   -3   -1    7    1   -0.000058    0.000042
   -4   -3   -1    8    1    0.000032   -0.000102
   -4   -3   -1    1    2   -0.000855   -0.000008
   -4   -3   -1    2    2   -0.000349    0.000000
   -4   -3   -1    3    2    0.000114   -0.000037
   -4   -3   -1    4    2    0.000584    0.000015
   -4   -3   -1    5    2    0.000047   -0.000033
   -4   -3   -1    6    2    0.000000   -0.000000
   -4   -3   -1    7    2    0.000004   -0.000054
   -4   -3   -1    8    2   -0.000081    0.000006
   -4   -3   -1    1    3   -0.000576   -0.000075
   -4   -3   -1    2    3    0.000114    0.000037
   -4   -3   -1    3    3    0.001330   -0.000000
   -4   -3   -1    4    3    0.000239    0.000159
   -4   -3   -1    5    3   -0.000058    0.000042
   -4   -3   -1    6    3   -0.000004    0.000054
   -4   -3   -1    7    3   -0.000000    0.000000
   -4   -3   -1    8    3   -0.000077    0.000049
   -4   -3   -1    1    4   -0.001145    0.000015
   -4   -3   -1    2    4    0.000584   -0.000015
   -4   -3   -1    3    4    0.000239   -0.000159
   -4   -3   -1    4    4    0.001113   -0.000000
   -4   -3   -1    5    4    0.000032   -0.000102
   -4   -3   -1    6    4    0.000081   -0.000006
   -4   -3   -1    7    4    0.000077   -0.000049
   -4   -3   -1    8    4   -0.000000    0.000000
   -4   -3   -1    1    5   -0.000000    0.000000
   -4   -3   -1    2    5   -0.000047   -0.000033
   -4   -3   -1    3    5    0.000058    0.000042
   -4   -3   -1    4    5   -0.000032   -0.000102
   -4   -3   -1    5    5   -0.001931   -0.000000
   -4   -3   -1    6    5    0.000855    0.000008
   -4   -3   -1    7    5    0.000576    0.000075
   -4   -3   -1    8    5    0.001145   -0.000015
   -4   -3   -1    1    6   -0.000047   -0.000033
   -4   -3   -1    2    6    0.000000    0.000000
   -4   -3   -1    3    6   -0.000004   -0.000054
   -4   -3   -1    4    6    0.000081    0.000006
   -4   -3   -1    5    6   -0.000855    0.000008
   -4   -3   -1    6    6   -0.000349   -0.000000
   -4   -3   -1    7    6    0.000114    0.000037
   -4   -3   -1    8    6    0.000584   -0.000015
   -4   -3   -1    1    7    0.000058    0.000042
   -4   -3   -1    2    7    0.000004    0.000054
   -4   -3   -1    3    7   -0.000000   -0.000000
   -4   -3   -1    4    7    0.000077    0.000049
   -4   -3   -1    5    7   -0.000576    0.000075
   -4   -3   -1    6    7    0.000114   -0.000037
   -4   -3   -1    7    7    0.001330    0.000000
   -4   -3   -1    8    7    0.000239   -0.000159
   -4   -3   -1    1    8   -0.000032   -0.000102
   -4   -3   -1    2    8   -0.000081   -0.000006
   -4   -3   -1    3    8   -0.000077   -0.000049
   -4   -3   -1    4    8   -0.000000   -0.000000
   -4   -3   -1    5    8   -0.001145   -0.000015
   -4   -3   -1    6    8    0.000584    0.000015
   -4   -3   -1    7    8    0.000239    0.000159
   -4   -3   -1    8    8    0.001113   -0.000000
   -4   -3    0    1    1   -0.003603    0.000000
   -4   -3    0    2    1    0.000043    0.000009
   -4   -3    0    3    1    0.001208   -0.000248
   -4   -3    0    4    1    0.002123    0.000072
   -4   -3    0    5    1   -0.000000    0.000000
   -4   -3    0    6    1    0.000046   -0.000027
   -4   -3    0    7    1    0.000012   -0.000009
   -4   -3    0    8    1   -0.000001    0.000000
   -4   -3    0    1    2   -0.000043    0.000009
   -4   -3    0    2    2   -0.000616   -0.000000
   -4   -3    0    3    2   -0.000051    0.000018
   -4   -3    0    4    2    0.000038    0.000002
   -4   -3    0    5    2    0.000046   -0.000027
   -4   -3    0    6    2    0.000000    0.000000
   -4   -3    0    7    2    0.000039   -0.000098
   -4   -3    0    8    2   -0.000112    0.000007
   -4   -3    0    1    3   -0.001208   -0.000248
   -4   -3    0    2    3   -0.000051   -0.000018
   -4   -3    0    3    3    0.002099    0.000000
   -4   -3    0    4    3    0.000864    0.000135
   -4   -3    0    5    3    0.000012   -0.000009
   -4   -3    0    6    3   -0.000039    0.000098
   -4   -3    0    7    3   -0.000000   -0.000000
   -4   -3    0    8    3   -0.000005    0.000013
   -4   -3    0    1    4   -0.002123    0.000072
   -4   -3    0    2    4    0.000038   -0.000002
   -4   -3    0    3    4    0.000864   -0.000135
   -4   -3    0    4    4    0.001834    0.000000
   -4   -3    0    5    4   -0.000001    0.000000
   -4   -3    0    6    4    0.000112   -0.000007
   -4   -3    0    7    4    0.000005   -0.000013
   -4   -3    0    8    4   -0.000000   -0.000000
   -4   -3    0    1    5   -0.000000   -0.000000
   -4   -3    0    2    5   -0.000046   -0.000027
   -4   -3    0    3    5   -0.000012   -0.000009
   -4   -3    0    4    5    0.000001    0.000000
   -4   -3    0    5    5   -0.003603    0.000000
   -4   -3    0    6    5    0.000043   -0.000009
   -4   -3    0    7    5    0.001208    0.000248
   -4   -3    0    8    5    0.002123   -0.000072
   -4   -3    0    1    6   -0.000046   -0.000027
   -4   -3    0    2    6    0.000000   -0.000000
   -4   -3    0    3    6   -0.000039   -0.000098
   -4   -3    0    4    6    0.000112    0.000007
   -4   -3    0    5    6   -0.000043   -0.000009
   -4   -3    0    6    6   -0.000616   -0.000000
   -4   -3    0    7    6   -0.000051   -0.000018
   -4   -3    0    8    6    0.000038   -0.000002
   -4   -3    0    1    7   -0.000012   -0.000009
   -4   -3    0    2    7    0.000039    0.000098
   -4   -3    0    3    7   -0.000000    0.000000
   -4   -3    0    4    7    0.000005    0.000013
   -4   -3    0    5    7   -0.001208    0.000248
   -4   -3    0    6    7   -0.000051    0.000018
   -4   -3    0    7    7    0.002099   -0.000000
   -4   -3    0    8    7    0.000864   -0.000135
   -4   -3    0    1    8    0.000001    0.000000
   -4   -3    0    2    8   -0.000112   -0.000007
   -4   -3    0    3    8   -0.000005   -0.000013
   -4   -3    0    4    8   -0.000000    0.000000
   -4   -3    0    5    8   -0.002123   -0.000072
   -4   -3    0    6    8    0.000038    0.000002
   -4   -3    0    7    8    0.000864    0.000135
   -4   -3    0    8    8    0.001834   -0.000000
   -4   -3    1    1    1   -0.001990   -0.000000
   -4   -3    1    2    1   -0.000799    0.000024
   -4   -3    1    3    1    0.000617   -0.000068
   -4   -3    1    4    1    0.001116   -0.000000
   -4   -3    1    5    1   -0.000000    0.000000
   -4   -3    1    6    1    0.000026   -0.000023
   -4   -3    1    7    1    0.000072   -0.000044
   -4   -3    1    8    1   -0.000024    0.000087
   -4   -3    1    1    2    0.000799    0.000024
   -4   -3    1    2    2   -0.000311    0.000000
   -4   -3    1    3    2   -0.000187    0.000064
   -4   -3    1    4    2   -0.000502   -0.000004
   -4   -3    1    5    2    0.000026   -0.000023
   -4   -3    1    6    2   -0.000000    0.000000
   -4   -3    1    7    2    0.000020   -0.000067
   -4   -3    1    8    2   -0.000080    0.000006
   -4   -3    1    1    3   -0.000617   -0.000068
   -4   -3    1    2    3   -0.000187   -0.000064
   -4   -3    1    3    3    0.001172    0.000000
   -4   -3    1    4    3    0.000420    0.000113
   -4   -3    1    5    3    0.000072   -0.000044
   -4   -3    1    6    3   -0.000020    0.000067
   -4   -3    1    7    3    0.000000   -0.000000
   -4   -3    1    8    3    0.000068   -0.000033
   -4   -3    1    1    4   -0.001116   -0.000000
   -4   -3    1    2    4   -0.000502    0.000004
   -4   -3    1    3    4    0.000420   -0.000113
   -4   -3    1    4    4    0.000974   -0.000000
   -4   -3    1    5    4   -0.000024    0.000087
   -4   -3    1    6    4    0.000080   -0.000006
   -4   -3    1    7    4   -0.000068    0.000033
   -4   -3    1    8    4   -0.000000    0.000000
   -4   -3    1    1    5   -0.000000   -0.000000
   -4   -3    1    2    5   -0.000026   -0.000023
   -4   -3    1    3    5   -0.000072   -0.000044
   -4   -3    1    4    5    0.000024    0.000087
   -4   -3    1    5    5   -0.001990    0.000000
   -4   -3    1    6    5   -0.000799   -0.000024
   -4   -3    1    7    5    0.000617    0.000068
   -4   -3    1    8    5    0.001116    0.000000
   -4   -3    1    1    6   -0.000026   -0.000023
   -4   -3    1    2    6    0.000000   -0.000000
   -4   -3    1    3    6   -0.000020   -0.000067
   -4   -3    1    4    6    0.000080    0.000006
   -4   -3    1    5    6    0.000799   -0.000024
   -4   -3    1    6    6   -0.000311   -0.000000
   -4   -3    1    7    6   -0.000187   -0.000064
   -4   -3    1    8    6   -0.000502    0.000004
   -4   -3    1    1    7   -0.000072   -0.000044
   -4   -3    1    2    7    0.000020    0.000067
   -4   -3    1    3    7    0.000000    0.000000
   -4   -3    1    4    7   -0.000068   -0.000033
   -4   -3    1    5    7   -0.000617    0.000068
   -4   -3    1    6    7   -0.000187    0.000064
   -4   -3    1    7    7    0.001172   -0.000000
   -4   -3    1    8    7    0.000420   -0.000113
   -4   -3    1    1    8    0.000024    0.000087
   -4   -3    1    2    8   -0.000080   -0.000006
   -4   -3    1    3    8    0.000068    0.000033
   -4   -3    1    4    8   -0.000000   -0.000000
   -4   -3    1    5    8   -0.001116    0.000000
   -4   -3    1    6    8   -0.000502   -0.000004
   -4   -3    1    7    8    0.000420    0.000113
   -4   -3    1    8    8    0.000974   -0.000000
   -4   -3    2    1    1   -0.000627   -0.000000
   -4   -3    2    2    1   -0.000574    0.000009
   -4   -3    2    3    1   -0.000005    0.000143
   -4   -3    2    4    1    0.000090   -0.000053
   -4   -3    2    5    1    0.000000    0.000000
   -4   -3    2    6    1    0.000005   -0.000001
   -4   -3    2    7    1    0.000090   -0.000026
   -4   -3    2    8    1   -0.000019    0.000107
   -4   -3    2    1    2    0.000574    0.000009
   -4   -3    2    2    2    0.000100    0.000000
   -4   -3    2    3    2   -0.000103   -0.000034
   -4   -3    2    4    2   -0.000313    0.000005
   -4   -3    2    5    2    0.000005   -0.000001
   -4   -3    2    6    2   -0.000000    0.000000
   -4   -3    2    7    2   -0.000019   -0.000018
   -4   -3    2    8    2   -0.000007   -0.000021
   -4   -3    2    1    3    0.000005    0.000143
   -4   -3    2    2    3   -0.000103    0.000034
   -4   -3    2    3    3    0.000388    0.000000
   -4   -3    2    4    3   -0.000157    0.000123
   -4   -3    2    5    3    0.000090   -0.000026
   -4   -3    2    6    3    0.000019    0.000018
   -4   -3    2    7    3   -0.000000   -0.000000
   -4   -3    2    8    3    0.000115   -0.000017
   -4   -3    2    1    4   -0.000090   -0.000053
   -4   -3    2    2    4   -0.000313   -0.000005
   -4   -3    2    3    4   -0.000157   -0.000123
   -4   -3    2    4    4    0.000305   -0.000000
   -4   -3    2    5    4   -0.000019    0.000107
   -4   -3    2    6    4    0.000007    0.000021
   -4   -3    2    7    4   -0.000115    0.000017
   -4   -3    2    8    4    0.000000   -0.000000
   -4   -3    2    1    5    0.000000   -0.000000
   -4   -3    2    2    5   -0.000005   -0.000001
   -4   -3    2    3    5   -0.000090   -0.000026
   -4   -3    2    4    5    0.000019    0.000107
   -4   -3    2    5    5   -0.000627   -0.000000
   -4   -3    2    6    5   -0.000574   -0.000009
   -4   -3    2    7    5   -0.000005   -0.000143
   -4   -3    2    8    5    0.000090    0.000053
   -4   -3    2    1    6   -0.000005   -0.000001
   -4   -3    2    2    6   -0.000000   -0.000000
   -4   -3    2    3    6    0.000019   -0.000018
   -4   -3    2    4    6    0.000007   -0.000021
   -4   -3    2    5    6    0.000574   -0.000009
   -4   -3    2    6    6    0.000100    0.000000
   -4   -3    2    7    6   -0.000103    0.000034
   -4   -3    2    8    6   -0.000313   -0.000005
   -4   -3    2    1    7   -0.000090   -0.000026
   -4   -3    2    2    7   -0.000019    0.000018
   -4   -3    2    3    7   -0.000000    0.000000
   -4   -3    2    4    7   -0.000115   -0.000017
   -4   -3    2    5    7    0.000005   -0.000143
   -4   -3    2    6    7   -0.000103   -0.000034
   -4   -3    2    7    7    0.000388    0.000000
   -4   -3    2    8    7   -0.000157   -0.000123
   -4   -3    2    1    8    0.000019    0.000107
   -4   -3    2    2    8   -0.000007    0.000021
   -4   -3    2    3    8    0.000115    0.000017
   -4   -3    2    4    8    0.000000    0.000000
   -4   -3    2    5    8   -0.000090    0.000053
   -4   -3    2    6    8   -0.000313    0.000005
   -4   -3    2    7    8   -0.000157    0.000123
   -4   -3    2    8    8    0.000305    0.000000
   -4   -3    3    1    1   -0.000731   -0.000000
   -4   -3    3    2    1   -0.000146   -0.000006
   -4   -3    3    3    1    0.000114   -0.000020
   -4   -3    3    4    1    0.000183    0.000013
   -4   -3    3    5    1    0.000000    0.000000
   -4   -3    3    6    1    0.000001    0.000063
   -4   -3    3    7    1    0.000014   -0.000007
   -4   -3    3    8    1   -0.000012    0.000052
   -4   -3    3    1    2    0.000146   -0.000006
   -4   -3    3    2    2    0.000234    0.000000
   -4   -3    3    3    2    0.000146   -0.000129
   -4   -3    3    4    2    0.000119    0.000029
   -4   -3    3    5    2    0.000001    0.000063
   -4   -3    3    6    2   -0.000000    0.000000
   -4   -3    3    7    2   -0.000023    0.000026
   -4   -3    3    8    2    0.000036   -0.000041
   -4   -3    3    1    3   -0.000114   -0.000020
   -4   -3    3    2    3    0.000146    0.000129
   -4   -3    3    3    3    0.000119   -0.000000
   -4   -3    3    4    3   -0.000084    0.000038
   -4   -3    3    5    3    0.000014   -0.000007
   -4   -3    3    6    3    0.000023   -0.000026
   -4   -3    3    7    3   -0.000000   -0.000000
   -4   -3    3    8    3    0.000122   -0.000035
   -4   -3    3    1    4   -0.000183    0.000013
   -4   -3    3    2    4    0.000119   -0.000029
   -4   -3    3    3    4   -0.000084   -0.000038
   -4   -3    3    4    4    0.000221    0.000000
   -4   -3    3    5    4   -0.000012    0.000052
   -4   -3    3    6    4   -0.000036    0.000041
   -4   -3    3    7    4   -0.000122    0.000035
   -4   -3    3    8    4   -0.000000   -0.000000
   -4   -3    3    1    5    0.000000   -0.000000
   -4   -3    3    2    5   -0.000001    0.000063
   -4   -3    3    3    5   -0.000014   -0.000007
   -4   -3    3    4    5    0.000012    0.000052
   -4   -3    3    5    5   -0.000731   -0.000000
   -4   -3    3    6    5   -0.000146    0.000006
   -4   -3    3    7    5    0.000114    0.000020
   -4   -3    3    8    5    0.000183   -0.000013
   -4   -3    3    1    6   -0.000001    0.000063
   -4   -3    3    2    6   -0.000000   -0.000000
   -4   -3    3    3    6    0.000023    0.000026
   -4   -3    3    4    6   -0.000036   -0.000041
   -4   -3    3    5    6    0.000146    0.000006
   -4   -3    3    6    6    0.000234    0.000000
   -4   -3    3    7    6    0.000146    0.000129
   -4   -3    3    8    6    0.000119   -0.000029
   -4   -3    3    1    7   -0.000014   -0.000007
   -4   -3    3    2    7   -0.000023   -0.000026
   -4   -3    3    3    7   -0.000000    0.000000
   -4   -3    3    4    7   -0.000122   -0.000035
   -4   -3    3    5    7   -0.000114    0.000020
   -4   -3    3    6    7    0.000146   -0.000129
   -4   -3    3    7    7    0.000119    0.000000
   -4   -3    3    8    7   -0.000084   -0.000038
   -4   -3    3    1    8    0.000012    0.000052
   -4   -3    3    2    8    0.000036    0.000041
   -4   -3    3    3    8    0.000122    0.000035
   -4   -3    3    4    8   -0.000000    0.000000
   -4   -3    3    5    8   -0.000183   -0.000013
   -4   -3    3    6    8    0.000119    0.000029
   -4   -3    3    7    8   -0.000084    0.000038
   -4   -3    3    8    8    0.000221    0.000000
   -4   -3    4    1    1   -0.000941    0.000000
   -4   -3    4    2    1   -0.000026   -0.000006
   -4   -3    4    3    1    0.000044   -0.000138
   -4   -3    4    4    1    0.000731    0.000003
   -4   -3    4    5    1    0.000000    0.000000
   -4   -3    4    6    1   -0.000009    0.000136
   -4   -3    4    7    1   -0.000031    0.000011
   -4   -3    4    8    1    0.000001   -0.000001
   -4   -3    4    1    2    0.000026   -0.000006
   -4   -3    4    2    2    0.000317    0.000000
   -4   -3    4    3    2    0.000109   -0.000058
   -4   -3    4    4    2    0.000080    0.000009
   -4   -3    4    5    2   -0.000009    0.000136
   -4   -3    4    6    2   -0.000000    0.000000
   -4   -3    4    7    2   -0.000028    0.000042
   -4   -3    4    8    2    0.000051   -0.000045
   -4   -3    4    1    3   -0.000044   -0.000138
   -4   -3    4    2    3    0.000109    0.000058
   -4   -3    4    3    3    0.000186   -0.000000
   -4   -3    4    4    3   -0.000081    0.000016
   -4   -3    4    5    3   -0.000031    0.000011
   -4   -3    4    6    3    0.000028   -0.000042
   -4   -3    4    7    3   -0.000000   -0.000000
   -4   -3    4    8    3    0.000048   -0.000026
   -4   -3    4    1    4   -0.000731    0.000003
   -4   -3    4    2    4    0.000080   -0.000009
   -4   -3    4    3    4   -0.000081   -0.000016
   -4   -3    4    4    4    0.000316    0.000000
   -4   -3    4    5    4    0.000001   -0.000001
   -4   -3    4    6    4   -0.000051    0.000045
   -4   -3    4    7    4   -0.000048    0.000026
   -4   -3    4    8    4   -0.000000   -0.000000
   -4   -3    4    1    5    0.000000   -0.000000
   -4   -3    4    2    5    0.000009    0.000136
   -4   -3    4    3    5    0.000031    0.000011
   -4   -3    4    4    5   -0.000001   -0.000001
   -4   -3    4    5    5   -0.000941    0.000000
   -4   -3    4    6    5   -0.000026    0.000006
   -4   -3    4    7    5    0.000044    0.000138
   -4   -3    4    8    5    0.000731   -0.000003
   -4   -3    4    1    6    0.000009    0.000136
   -4   -3    4    2    6   -0.000000   -0.000000
   -4   -3    4    3    6    0.000028    0.000042
   -4   -3    4    4    6   -0.000051   -0.000045
   -4   -3    4    5    6    0.000026    0.000006
   -4   -3    4    6    6    0.000317   -0.000000
   -4   -3    4    7    6    0.000109    0.000058
   -4   -3    4    8    6    0.000080   -0.000009
   -4   -3    4    1    7    0.000031    0.000011
   -4   -3    4    2    7   -0.000028   -0.000042
   -4   -3    4    3    7   -0.000000    0.000000
   -4   -3    4    4    7   -0.000048   -0.000026
   -4   -3    4    5    7   -0.000044    0.000138
   -4   -3    4    6    7    0.000109   -0.000058
   -4   -3    4    7    7    0.000186   -0.000000
   -4   -3    4    8    7   -0.000081   -0.000016
   -4   -3    4    1    8   -0.000001   -0.000001
   -4   -3    4    2    8    0.000051    0.000045
   -4   -3    4    3    8    0.000048    0.000026
   -4   -3    4    4    8   -0.000000    0.000000
   -4   -3    4    5    8   -0.000731   -0.000003
   -4   -3    4    6    8    0.000080    0.000009
   -4   -3    4    7    8   -0.000081    0.000016
   -4   -3    4    8    8    0.000316    0.000000
   -4   -2   -4    1    1   -0.000487   -0.000000
   -4   -2   -4    2    1    0.000023    0.000009
   -4   -2   -4    3    1    0.000049   -0.000255
   -4   -2   -4    4    1    0.001164   -0.000007
   -4   -2   -4    5    1    0.000000    0.000000
   -4   -2   -4    6    1   -0.000057    0.000256
   -4   -2   -4    7    1    0.000060   -0.000008
   -4   -2   -4    8    1   -0.000001    0.000010
   -4   -2   -4    1    2   -0.000023    0.000009
   -4   -2   -4    2    2    0.000255    0.000000
   -4   -2   -4    3    2   -0.000012    0.000063
   -4   -2   -4    4    2   -0.000009    0.000006
   -4   -2   -4    5    2   -0.000057    0.000256
   -4   -2   -4    6    2    0.000000    0.000000
   -4   -2   -4    7    2   -0.000162    0.000065
   -4   -2   -4    8    2    0.000020   -0.000045
   -4   -2   -4    1    3   -0.000049   -0.000255
   -4   -2   -4    2    3   -0.000012   -0.000063
   -4   -2   -4    3    3    0.000253    0.000000
   -4   -2   -4    4    3   -0.000006    0.000044
   -4   -2   -4    5    3    0.000060   -0.000008
   -4   -2   -4    6    3    0.000162   -0.000065
   -4   -2   -4    7    3    0.000000    0.000000
   -4   -2   -4    8    3   -0.000019   -0.000006
   -4   -2   -4    1    4   -0.001164   -0.000007
   -4   -2   -4    2    4   -0.000009   -0.000006
   -4   -2   -4    3    4   -0.000006   -0.000044
   -4   -2   -4    4    4    0.000060   -0.000000
   -4   -2   -4    5    4   -0.000001    0.000010
   -4   -2   -4    6    4   -0.000020    0.000045
   -4   -2   -4    7    4    0.000019    0.000006
   -4   -2   -4    8    4   -0.000000    0.000000
   -4   -2   -4    1    5    0.000000   -0.000000
   -4   -2   -4    2    5    0.000057    0.000256
   -4   -2   -4    3    5   -0.000060   -0.000008
   -4   -2   -4    4    5    0.000001    0.000010
   -4   -2   -4    5    5   -0.000487   -0.000000
   -4   -2   -4    6    5    0.000023   -0.000009
   -4   -2   -4    7    5    0.000049    0.000255
   -4   -2   -4    8    5    0.001164    0.000007
   -4   -2   -4    1    6    0.000057    0.000256
   -4   -2   -4    2    6    0.000000   -0.000000
   -4   -2   -4    3    6    0.000162    0.000065
   -4   -2   -4    4    6   -0.000020   -0.000045
   -4   -2   -4    5    6   -0.000023   -0.000009
   -4   -2   -4    6    6    0.000255    0.000000
   -4   -2   -4    7    6   -0.000012   -0.000063
   -4   -2   -4    8    6   -0.000009   -0.000006
   -4   -2   -4    1    7   -0.000060   -0.000008
   -4   -2   -4    2    7   -0.000162   -0.000065
   -4   -2   -4    3    7    0.000000   -0.000000
   -4   -2   -4    4    7    0.000019   -0.000006
   -4   -2   -4    5    7   -0.000049    0.000255
   -4   -2   -4    6    7   -0.000012    0.000063
   -4   -2   -4    7    7    0.000253   -0.000000
   -4   -2   -4    8    7   -0.000006   -0.000044
   -4   -2   -4    1    8    0.000001    0.000010
   -4   -2   -4    2    8    0.000020    0.000045
   -4   -2   -4    3    8   -0.000019    0.000006
   -4   -2   -4    4    8   -0.000000   -0.000000
   -4   -2   -4    5    8   -0.001164    0.000007
   -4   -2   -4    6    8   -0.000009    0.000006
   -4   -2   -4    7    8   -0.000006    0.000044
   -4   -2   -4    8    8    0.000060    0.000000
   -4   -2   -3    1    1   -0.000573    0.000000
   -4   -2   -3    2    1    0.000032    0.000020
   -4   -2   -3    3    1   -0.000012   -0.000078
   -4   -2   -3    4    1    0.000581    0.000038
   -4   -2   -3    5    1    0.000000    0.000000
   -4   -2   -3    6    1   -0.000024    0.000112
   -4   -2   -3    7    1    0.000137   -0.000025
   -4   -2   -3    8    1    0.000001    0.000025
   -4   -2   -3    1    2   -0.000032    0.000020
   -4   -2   -3    2    2    0.000252   -0.000000
   -4   -2   -3    3    2   -0.000076    0.000113
   -4   -2   -3    4    2    0.000331    0.000013
   -4   -2   -3    5    2   -0.000024    0.000112
   -4   -2   -3    6    2    0.000000    0.000000
   -4   -2   -3    7    2   -0.000101    0.000016
   -4   -2   -3    8    2   -0.000003   -0.000019
   -4   -2   -3    1    3    0.000012   -0.000078
   -4   -2   -3    2    3   -0.000076   -0.000113
   -4   -2   -3    3    3    0.000334   -0.000000
   -4   -2   -3    4    3    0.000069    0.000038
   -4   -2   -3    5    3    0.000137   -0.000025
   -4   -2   -3    6    3    0.000101   -0.000016
   -4   -2   -3    7    3   -0.000000    0.000000
   -4   -2   -3    8    3   -0.000043   -0.000004
   -4   -2   -3    1    4   -0.000581    0.000038
   -4   -2   -3    2    4    0.000331   -0.000013
   -4   -2   -3    3    4    0.000069   -0.000038
   -4   -2   -3    4    4    0.000041   -0.000000
   -4   -2   -3    5    4    0.000001    0.000025
   -4   -2   -3    6    4    0.000003    0.000019
   -4   -2   -3    7    4    0.000043    0.000004
   -4   -2   -3    8    4    0.000000    0.000000
   -4   -2   -3    1    5    0.000000   -0.000000
   -4   -2   -3    2    5    0.000024    0.000112
   -4   -2   -3    3    5   -0.000137   -0.000025
   -4   -2   -3    4    5   -0.000001    0.000025
   -4   -2   -3    5    5   -0.000573    0.000000
   -4   -2   -3    6    5    0.000032   -0.000020
   -4   -2   -3    7    5   -0.000012    0.000078
   -4   -2   -3    8    5    0.000581   -0.000038
   -4   -2   -3    1    6    0.000024    0.000112
   -4   -2   -3    2    6    0.000000   -0.000000
   -4   -2   -3    3    6    0.000101    0.000016
   -4   -2   -3    4    6    0.000003   -0.000019
   -4   -2   -3    5    6   -0.000032   -0.000020
   -4   -2   -3    6    6    0.000252    0.000000
   -4   -2   -3    7    6   -0.000076   -0.000113
   -4   -2   -3    8    6    0.000331   -0.000013
   -4   -2   -3    1    7   -0.000137   -0.000025
   -4   -2   -3    2    7   -0.000101   -0.000016
   -4   -2   -3    3    7   -0.000000   -0.000000
   -4   -2   -3    4    7    0.000043   -0.000004
   -4   -2   -3    5    7    0.000012    0.000078
   -4   -2   -3    6    7   -0.000076    0.000113
   -4   -2   -3    7    7    0.000334   -0.000000
   -4   -2   -3    8    7    0.000069   -0.000038
   -4   -2   -3    1    8   -0.000001    0.000025
   -4   -2   -3    2    8   -0.000003    0.000019
   -4   -2   -3    3    8   -0.000043    0.000004
   -4   -2   -3    4    8    0.000000   -0.000000
   -4   -2   -3    5    8   -0.000581   -0.000038
   -4   -2   -3    6    8    0.000331    0.000013
   -4   -2   -3    7    8    0.000069    0.000038
   -4   -2   -3    8    8    0.000041   -0.000000
   -4   -2   -2    1    1   -0.000367    0.000000
   -4   -2   -2    2    1    0.000273    0.000022
   -4   -2   -2    3    1   -0.000023    0.000105
   -4   -2   -2    4    1    0.000279    0.000036
   -4   -2   -2    5    1   -0.000000   -0.000000
   -4   -2   -2    6    1    0.000035   -0.000048
   -4   -2   -2    7    1    0.000104   -0.000000
   -4   -2   -2    8    1    0.000022    0.000047
   -4   -2   -2    1    2   -0.000273    0.000022
   -4   -2   -2    2    2    0.000139   -0.000000
   -4   -2   -2    3    2   -0.000055    0.000017
   -4   -2   -2    4    2    0.001214   -0.000000
   -4   -2   -2    5    2    0.000035   -0.000048
   -4   -2   -2    6    2    0.000000   -0.000000
   -4   -2   -2    7    2   -0.000001   -0.000016
   -4   -2   -2    8    2    0.000001   -0.000004
   -4   -2   -2    1    3    0.000023    0.000105
   -4   -2   -2    2    3   -0.000055   -0.000017
   -4   -2   -2    3    3    0.000924   -0.000000
   -4   -2   -2    4    3   -0.000051    0.000001
   -4   -2   -2    5    3    0.000104   -0.000000
   -4   -2   -2    6    3    0.000001    0.000016
   -4   -2   -2    7    3   -0.000000   -0.000000
   -4   -2   -2    8    3   -0.000017   -0.000016
   -4   -2   -2    1    4   -0.000279    0.000036
   -4   -2   -2    2    4    0.001214    0.000000
   -4   -2   -2    3    4   -0.000051   -0.000001
   -4   -2   -2    4    4    0.000150   -0.000000
   -4   -2   -2    5    4    0.000022    0.000047
   -4   -2   -2    6    4   -0.000001    0.000004
   -4   -2   -2    7    4    0.000017    0.000016
   -4   -2   -2    8    4    0.000000    0.000000
   -4   -2   -2    1    5   -0.000000    0.000000
   -4   -2   -2    2    5   -0.000035   -0.000048
   -4   -2   -2    3    5   -0.000104   -0.000000
   -4   -2   -2    4    5   -0.000022    0.000047
   -4   -2   -2    5    5   -0.000367    0.000000
   -4   -2   -2    6    5    0.000273   -0.000022
   -4   -2   -2    7    5   -0.000023   -0.000105
   -4   -2   -2    8    5    0.000279   -0.000036
   -4   -2   -2    1    6   -0.000035   -0.000048
   -4   -2   -2    2    6    0.000000    0.000000
   -4   -2   -2    3    6    0.000001   -0.000016
   -4   -2   -2    4    6   -0.000001   -0.000004
   -4   -2   -2    5    6   -0.000273   -0.000022
   -4   -2   -2    6    6    0.000139   -0.000000
   -4   -2   -2    7    6   -0.000055   -0.000017
   -4   -2   -2    8    6    0.001214    0.000000
   -4   -2   -2    1    7   -0.000104   -0.000000
   -4   -2   -2    2    7   -0.000001    0.000016
   -4   -2   -2    3    7   -0.000000    0.000000
   -4   -2   -2    4    7    0.000017   -0.000016
   -4   -2   -2    5    7    0.000023   -0.000105
   -4   -2   -2    6    7   -0.000055    0.000017
   -4   -2   -2    7    7    0.000924   -0.000000
   -4   -2   -2    8    7   -0.000051   -0.000001
   -4   -2   -2    1    8   -0.000022    0.000047
   -4   -2   -2    2    8    0.000001    0.000004
   -4   -2   -2    3    8   -0.000017    0.000016
   -4   -2   -2    4    8    0.000000   -0.000000
   -4   -2   -2    5    8   -0.000279   -0.000036
   -4   -2   -2    6    8    0.001214   -0.000000
   -4   -2   -2    7    8   -0.000051    0.000001
   -4   -2   -2    8    8    0.000150   -0.000000
   -4   -2   -1    1    1   -0.001332    0.000000
   -4   -2   -1    2    1    0.000835    0.000022
   -4   -2   -1    3    1    0.000063   -0.000185
   -4   -2   -1    4    1    0.002623   -0.000022
   -4   -2   -1    5    1   -0.000000   -0.000000
   -4   -2   -1    6    1    0.000077   -0.000113
   -4   -2   -1    7    1   -0.000018    0.000035
   -4   -2   -1    8    1    0.000046    0.000064
   -4   -2   -1    1    2   -0.000835    0.000022
   -4   -2   -1    2    2   -0.000461   -0.000000
   -4   -2   -1    3    2    0.000243   -0.000050
   -4   -2   -1    4    2    0.001686   -0.000013
   -4   -2   -1    5    2    0.000077   -0.000113
   -4   -2   -1    6    2   -0.000000   -0.000000
   -4   -2   -1    7    2    0.000176   -0.000093
   -4   -2   -1    8    2   -0.000068    0.000011
   -4   -2   -1    1    3   -0.000063   -0.000185
   -4   -2   -1    2    3    0.000243    0.000050
   -4   -2   -1    3    3    0.001695   -0.000000
   -4   -2   -1    4    3    0.000979   -0.000078
   -4   -2   -1    5    3   -0.000018    0.000035
   -4   -2   -1    6    3   -0.000176    0.000093
   -4   -2   -1    7    3   -0.000000   -0.000000
   -4   -2   -1    8    3   -0.000040    0.000005
   -4   -2   -1    1    4   -0.002623   -0.000022
   -4   -2   -1    2    4    0.001686    0.000013
   -4   -2   -1    3    4    0.000979    0.000078
   -4   -2   -1    4    4    0.000615   -0.000000
   -4   -2   -1    5    4    0.000046    0.000064
   -4   -2   -1    6    4    0.000068   -0.000011
   -4   -2   -1    7    4    0.000040   -0.000005
   -4   -2   -1    8    4   -0.000000   -0.000000
   -4   -2   -1    1    5   -0.000000    0.000000
   -4   -2   -1    2    5   -0.000077   -0.000113
   -4   -2   -1    3    5    0.000018    0.000035
   -4   -2   -1    4    5   -0.000046    0.000064
   -4   -2   -1    5    5   -0.001332    0.000000
   -4   -2   -1    6    5    0.000835   -0.000022
   -4   -2   -1    7    5    0.000063    0.000185
   -4   -2   -1    8    5    0.002623    0.000022
   -4   -2   -1    1    6   -0.000077   -0.000113
   -4   -2   -1    2    6   -0.000000    0.000000
   -4   -2   -1    3    6   -0.000176   -0.000093
   -4   -2   -1    4    6    0.000068    0.000011
   -4   -2   -1    5    6   -0.000835   -0.000022
   -4   -2   -1    6    6   -0.000461   -0.000000
   -4   -2   -1    7    6    0.000243    0.000050
   -4   -2   -1    8    6    0.001686    0.000013
   -4   -2   -1    1    7    0.000018    0.000035
   -4   -2   -1    2    7    0.000176    0.000093
   -4   -2   -1    3    7   -0.000000    0.000000
   -4   -2   -1    4    7    0.000040    0.000005
   -4   -2   -1    5    7   -0.000063    0.000185
   -4   -2   -1    6    7    0.000243   -0.000050
   -4   -2   -1    7    7    0.001695    0.000000
   -4   -2   -1    8    7    0.000979    0.000078
   -4   -2   -1    1    8   -0.000046    0.000064
   -4   -2   -1    2    8   -0.000068   -0.000011
   -4   -2   -1    3    8   -0.000040   -0.000005
   -4   -2   -1    4    8   -0.000000    0.000000
   -4   -2   -1    5    8   -0.002623    0.000022
   -4   -2   -1    6    8    0.001686   -0.000013
   -4   -2   -1    7    8    0.000979   -0.000078
   -4   -2   -1    8    8    0.000615    0.000000
   -4   -2    0    1    1   -0.004143    0.000000
   -4   -2    0    2    1   -0.000059    0.000004
   -4   -2    0    3    1    0.000722   -0.000448
   -4   -2    0    4    1    0.006083   -0.000047
   -4   -2    0    5    1   -0.000000    0.000000
   -4   -2    0    6    1    0.000079   -0.000122
   -4   -2    0    7    1    0.000001    0.000002
   -4   -2    0    8    1    0.000010   -0.000011
   -4   -2    0    1    2    0.000059    0.000004
   -4   -2    0    2    2   -0.000941   -0.000000
   -4   -2    0    3    2   -0.000016    0.000004
   -4   -2    0    4    2    0.000022    0.000001
   -4   -2    0    5    2    0.000079   -0.000122
   -4   -2    0    6    2   -0.000000   -0.000000
   -4   -2    0    7    2    0.000284   -0.000113
   -4   -2    0    8    2   -0.000139    0.000013
   -4   -2    0    1    3   -0.000722   -0.000448
   -4   -2    0    2    3   -0.000016   -0.000004
   -4   -2    0    3    3    0.001892   -0.000000
   -4   -2    0    4    3    0.003104   -0.000032
   -4   -2    0    5    3    0.000001    0.000002
   -4   -2    0    6    3   -0.000284    0.000113
   -4   -2    0    7    3    0.000000    0.000000
   -4   -2    0    8    3   -0.000015    0.000012
   -4   -2    0    1    4   -0.006083   -0.000047
   -4   -2    0    2    4    0.000022   -0.000001
   -4   -2    0    3    4    0.003104    0.000032
   -4   -2    0    4    4    0.001577   -0.000000
   -4   -2    0    5    4    0.000010   -0.000011
   -4   -2    0    6    4    0.000139   -0.000013
   -4   -2    0    7    4    0.000015   -0.000012
   -4   -2    0    8    4   -0.000000    0.000000
   -4   -2    0    1    5   -0.000000   -0.000000
   -4   -2    0    2    5   -0.000079   -0.000122
   -4   -2    0    3    5   -0.000001    0.000002
   -4   -2    0    4    5   -0.000010   -0.000011
   -4   -2    0    5    5   -0.004143    0.000000
   -4   -2    0    6    5   -0.000059   -0.000004
   -4   -2    0    7    5    0.000722    0.000448
   -4   -2    0    8    5    0.006083    0.000047
   -4   -2    0    1    6   -0.000079   -0.000122
   -4   -2    0    2    6   -0.000000    0.000000
   -4   -2    0    3    6   -0.000284   -0.000113
   -4   -2    0    4    6    0.000139    0.000013
   -4   -2    0    5    6    0.000059   -0.000004
   -4   -2    0    6    6   -0.000941   -0.000000
   -4   -2    0    7    6   -0.000016   -0.000004
   -4   -2    0    8    6    0.000022   -0.000001
   -4   -2    0    1    7   -0.000001    0.000002
   -4   -2    0    2    7    0.000284    0.000113
   -4   -2    0    3    7    0.000000   -0.000000
   -4   -2    0    4    7    0.000015    0.000012
   -4   -2    0    5    7   -0.000722    0.000448
   -4   -2    0    6    7   -0.000016    0.000004
   -4   -2    0    7    7    0.001892    0.000000
   -4   -2    0    8    7    0.003104    0.000032
   -4   -2    0    1    8   -0.000010   -0.000011
   -4   -2    0    2    8   -0.000139   -0.000013
   -4   -2    0    3    8   -0.000015   -0.000012
   -4   -2    0    4    8   -0.000000   -0.000000
   -4   -2    0    5    8   -0.006083    0.000047
   -4   -2    0    6    8    0.000022    0.000001
   -4   -2    0    7    8    0.003104   -0.000032
   -4   -2    0    8    8    0.001577    0.000000
   -4   -2    1    1    1   -0.001290    0.000000
   -4   -2    1    2    1   -0.000961   -0.000019
   -4   -2    1    3    1   -0.000002   -0.000164
   -4   -2    1    4    1    0.002694   -0.000041
   -4   -2    1    5    1   -0.000000   -0.000000
   -4   -2    1    6    1    0.000054   -0.000091
   -4   -2    1    7    1    0.000018   -0.000018
   -4   -2    1    8    1   -0.000029   -0.000086
   -4   -2    1    1    2    0.000961   -0.000019
   -4   -2    1    2    2   -0.000397   -0.000000
   -4   -2    1    3    2   -0.000271    0.000053
   -4   -2    1    4    2   -0.001652    0.000016
   -4   -2    1    5    2    0.000054   -0.000091
   -4   -2    1    6    2   -0.000000   -0.000000
   -4   -2    1    7    2    0.000159   -0.000093
   -4   -2    1    8    2   -0.000075    0.000007
   -4   -2    1    1    3    0.000002   -0.000164
   -4   -2    1    2    3   -0.000271   -0.000053
   -4   -2    1    3    3    0.001736   -0.000000
   -4   -2    1    4    3    0.001250   -0.000112
   -4   -2    1    5    3    0.000018   -0.000018
   -4   -2    1    6    3   -0.000159    0.000093
   -4   -2    1    7    3   -0.000000   -0.000000
   -4   -2    1    8    3    0.000043   -0.000014
   -4   -2    1    1    4   -0.002694   -0.000041
   -4   -2    1    2    4   -0.001652   -0.000016
   -4   -2    1    3    4    0.001250    0.000112
   -4   -2    1    4    4    0.000491   -0.000000
   -4   -2    1    5    4   -0.000029   -0.000086
   -4   -2    1    6    4    0.000075   -0.000007
   -4   -2    1    7    4   -0.000043    0.000014
   -4   -2    1    8    4   -0.000000    0.000000
   -4   -2    1    1    5   -0.000000    0.000000
   -4   -2    1    2    5   -0.000054   -0.000091
   -4   -2    1    3    5   -0.000018   -0.000018
   -4   -2    1    4    5    0.000029   -0.000086
   -4   -2    1    5    5   -0.001290   -0.000000
   -4   -2    1    6    5   -0.000961    0.000019
   -4   -2    1    7    5   -0.000002    0.000164
   -4   -2    1    8    5    0.002694    0.000041
   -4   -2    1    1    6   -0.000054   -0.000091
   -4   -2    1    2    6   -0.000000    0.000000
   -4   -2    1    3    6   -0.000159   -0.000093
   -4   -2    1    4    6    0.000075    0.000007
   -4   -2    1    5    6    0.000961    0.000019
   -4   -2    1    6    6   -0.000397   -0.000000
   -4   -2    1    7    6   -0.000271   -0.000053
   -4   -2    1    8    6   -0.001652   -0.000016
   -4   -2    1    1    7   -0.000018   -0.000018
   -4   -2    1    2    7    0.000159    0.000093
   -4   -2    1    3    7   -0.000000    0.000000
   -4   -2    1    4    7   -0.000043   -0.000014
[...]
    4    4   -2    2    7   -0.000025    0.000013
    4    4   -2    3    7    0.000000   -0.000000
    4    4   -2    4    7   -0.000057   -0.000058
    4    4   -2    5    7    0.000040    0.000074
    4    4   -2    6    7    0.000028   -0.000022
    4    4   -2    7    7    0.000243    0.000000
    4    4   -2    8    7   -0.000048   -0.000177
    4    4   -2    1    8   -0.000008   -0.000258
    4    4   -2    2    8   -0.000013    0.000025
    4    4   -2    3    8    0.000057    0.000058
    4    4   -2    4    8    0.000000   -0.000000
    4    4   -2    5    8    0.000040   -0.000075
    4    4   -2    6    8    0.000027    0.000022
    4    4   -2    7    8   -0.000048    0.000177
    4    4   -2    8    8    0.000244   -0.000000
    4    4   -1    1    1   -0.001574   -0.000000
    4    4   -1    2    1    0.001105   -0.000000
    4    4   -1    3    1   -0.000389    0.000039
    4    4   -1    4    1   -0.000387   -0.000039
    4    4   -1    5    1    0.000000    0.000000
    4    4   -1    6    1   -0.000007   -0.000007
    4    4   -1    7    1   -0.000245    0.000006
    4    4   -1    8    1    0.000006   -0.000245
    4    4   -1    1    2   -0.001105   -0.000000
    4    4   -1    2    2   -0.000453   -0.000000
    4    4   -1    3    2   -0.000047    0.000016
    4    4   -1    4    2   -0.000047   -0.000016
    4    4   -1    5    2   -0.000007   -0.000007
    4    4   -1    6    2    0.000000    0.000000
    4    4   -1    7    2   -0.000022   -0.000052
    4    4   -1    8    2   -0.000052   -0.000021
    4    4   -1    1    3    0.000389    0.000039
    4    4   -1    2    3   -0.000047   -0.000016
    4    4   -1    3    3    0.001136    0.000000
    4    4   -1    4    3    0.000237    0.000286
    4    4   -1    5    3   -0.000245    0.000006
    4    4   -1    6    3    0.000022    0.000052
    4    4   -1    7    3    0.000000    0.000000
    4    4   -1    8    3    0.000021   -0.000021
    4    4   -1    1    4    0.000387   -0.000039
    4    4   -1    2    4   -0.000047    0.000016
    4    4   -1    3    4    0.000237   -0.000286
    4    4   -1    4    4    0.001130    0.000000
    4    4   -1    5    4    0.000006   -0.000245
    4    4   -1    6    4    0.000052    0.000021
    4    4   -1    7    4   -0.000021    0.000021
    4    4   -1    8    4    0.000000    0.000000
    4    4   -1    1    5    0.000000   -0.000000
    4    4   -1    2    5    0.000007   -0.000007
    4    4   -1    3    5    0.000245    0.000006
    4    4   -1    4    5   -0.000006   -0.000245
    4    4   -1    5    5   -0.001574   -0.000000
    4    4   -1    6    5    0.001105    0.000000
    4    4   -1    7    5   -0.000389   -0.000039
    4    4   -1    8    5   -0.000387    0.000039
    4    4   -1    1    6    0.000007   -0.000007
    4    4   -1    2    6    0.000000   -0.000000
    4    4   -1    3    6    0.000022   -0.000052
    4    4   -1    4    6    0.000052   -0.000021
    4    4   -1    5    6   -0.001105    0.000000
    4    4   -1    6    6   -0.000453   -0.000000
    4    4   -1    7    6   -0.000047   -0.000016
    4    4   -1    8    6   -0.000047    0.000016
    4    4   -1    1    7    0.000245    0.000006
    4    4   -1    2    7   -0.000022    0.000052
    4    4   -1    3    7    0.000000   -0.000000
    4    4   -1    4    7   -0.000021   -0.000021
    4    4   -1    5    7    0.000389   -0.000039
    4    4   -1    6    7   -0.000047    0.000016
    4    4   -1    7    7    0.001136    0.000000
    4    4   -1    8    7    0.000237   -0.000286
    4    4   -1    1    8   -0.000006   -0.000245
    4    4   -1    2    8   -0.000052    0.000021
    4    4   -1    3    8    0.000021    0.000021
    4    4   -1    4    8    0.000000   -0.000000
    4    4   -1    5    8    0.000387    0.000039
    4    4   -1    6    8   -0.000047   -0.000016
    4    4   -1    7    8    0.000237    0.000286
    4    4   -1    8    8    0.001130    0.000000
    4    4    0    1    1   -0.002434   -0.000000
    4    4    0    2    1   -0.000013    0.000000
    4    4    0    3    1   -0.000654    0.000104
    4    4    0    4    1   -0.000650   -0.000105
    4    4    0    5    1    0.000000    0.000000
    4    4    0    6    1   -0.000027   -0.000027
    4    4    0    7    1   -0.000013    0.000008
    4    4    0    8    1    0.000008   -0.000014
    4    4    0    1    2    0.000013    0.000000
    4    4    0    2    2   -0.000716   -0.000000
    4    4    0    3    2    0.000025    0.000002
    4    4    0    4    2    0.000025   -0.000002
    4    4    0    5    2   -0.000027   -0.000027
    4    4    0    6    2    0.000000    0.000000
    4    4    0    7    2   -0.000023   -0.000055
    4    4    0    8    2   -0.000056   -0.000022
    4    4    0    1    3    0.000654    0.000104
    4    4    0    2    3    0.000025   -0.000002
    4    4    0    3    3    0.001510    0.000000
    4    4    0    4    3    0.000215    0.000278
    4    4    0    5    3   -0.000013    0.000008
    4    4    0    6    3    0.000023    0.000055
    4    4    0    7    3   -0.000000   -0.000000
    4    4    0    8    3   -0.000010    0.000010
    4    4    0    1    4    0.000650   -0.000105
    4    4    0    2    4    0.000025    0.000002
    4    4    0    3    4    0.000215   -0.000278
    4    4    0    4    4    0.001506   -0.000000
    4    4    0    5    4    0.000008   -0.000014
    4    4    0    6    4    0.000056    0.000022
    4    4    0    7    4    0.000010   -0.000010
    4    4    0    8    4   -0.000000   -0.000000
    4    4    0    1    5    0.000000   -0.000000
    4    4    0    2    5    0.000027   -0.000027
    4    4    0    3    5    0.000013    0.000008
    4    4    0    4    5   -0.000008   -0.000014
    4    4    0    5    5   -0.002434   -0.000000
    4    4    0    6    5   -0.000013   -0.000000
    4    4    0    7    5   -0.000654   -0.000104
    4    4    0    8    5   -0.000650    0.000105
    4    4    0    1    6    0.000027   -0.000027
    4    4    0    2    6    0.000000   -0.000000
    4    4    0    3    6    0.000023   -0.000055
    4    4    0    4    6    0.000056   -0.000022
    4    4    0    5    6    0.000013   -0.000000
    4    4    0    6    6   -0.000716    0.000000
    4    4    0    7    6    0.000025   -0.000002
    4    4    0    8    6    0.000025    0.000002
    4    4    0    1    7    0.000013    0.000008
    4    4    0    2    7   -0.000023    0.000055
    4    4    0    3    7   -0.000000    0.000000
    4    4    0    4    7    0.000010    0.000010
    4    4    0    5    7    0.000654   -0.000104
    4    4    0    6    7    0.000025    0.000002
    4    4    0    7    7    0.001510    0.000000
    4    4    0    8    7    0.000215   -0.000278
    4    4    0    1    8   -0.000008   -0.000014
    4    4    0    2    8   -0.000056    0.000022
    4    4    0    3    8   -0.000010   -0.000010
    4    4    0    4    8   -0.000000    0.000000
    4    4    0    5    8    0.000650    0.000105
    4    4    0    6    8    0.000025   -0.000002
    4    4    0    7    8    0.000215    0.000278
    4    4    0    8    8    0.001506    0.000000
    4    4    1    1    1   -0.001506   -0.000000
    4    4    1    2    1   -0.001110    0.000000
    4    4    1    3    1   -0.000461    0.000055
    4    4    1    4    1   -0.000457   -0.000056
    4    4    1    5    1    0.000000    0.000000
    4    4    1    6    1   -0.000018   -0.000018
    4    4    1    7    1    0.000240   -0.000004
    4    4    1    8    1   -0.000005    0.000240
    4    4    1    1    2    0.001110    0.000000
    4    4    1    2    2   -0.000422    0.000000
    4    4    1    3    2    0.000111   -0.000023
    4    4    1    4    2    0.000110    0.000024
    4    4    1    5    2   -0.000018   -0.000018
    4    4    1    6    2    0.000000    0.000000
    4    4    1    7    2   -0.000029   -0.000046
    4    4    1    8    2   -0.000046   -0.000028
    4    4    1    1    3    0.000461    0.000055
    4    4    1    2    3    0.000111    0.000023
    4    4    1    3    3    0.001248    0.000000
    4    4    1    4    3    0.000067    0.000311
    4    4    1    5    3    0.000240   -0.000004
    4    4    1    6    3    0.000029    0.000046
    4    4    1    7    3    0.000000    0.000000
    4    4    1    8    3   -0.000049    0.000050
    4    4    1    1    4    0.000457   -0.000056
    4    4    1    2    4    0.000110   -0.000024
    4    4    1    3    4    0.000067   -0.000311
    4    4    1    4    4    0.001246    0.000000
    4    4    1    5    4   -0.000005    0.000240
    4    4    1    6    4    0.000046    0.000028
    4    4    1    7    4    0.000049   -0.000050
    4    4    1    8    4    0.000000    0.000000
    4    4    1    1    5    0.000000   -0.000000
    4    4    1    2    5    0.000018   -0.000018
    4    4    1    3    5   -0.000240   -0.000004
    4    4    1    4    5    0.000005    0.000240
    4    4    1    5    5   -0.001506   -0.000000
    4    4    1    6    5   -0.001110   -0.000000
    4    4    1    7    5   -0.000461   -0.000055
    4    4    1    8    5   -0.000457    0.000056
    4    4    1    1    6    0.000018   -0.000018
    4    4    1    2    6    0.000000   -0.000000
    4    4    1    3    6    0.000029   -0.000046
    4    4    1    4    6    0.000046   -0.000028
    4    4    1    5    6    0.001110   -0.000000
    4    4    1    6    6   -0.000422   -0.000000
    4    4    1    7    6    0.000111    0.000023
    4    4    1    8    6    0.000110   -0.000024
    4    4    1    1    7   -0.000240   -0.000004
    4    4    1    2    7   -0.000029    0.000046
    4    4    1    3    7    0.000000   -0.000000
    4    4    1    4    7    0.000049    0.000050
    4    4    1    5    7    0.000461   -0.000055
    4    4    1    6    7    0.000111   -0.000023
    4    4    1    7    7    0.001248   -0.000000
    4    4    1    8    7    0.000067   -0.000311
    4    4    1    1    8    0.000005    0.000240
    4    4    1    2    8   -0.000046    0.000028
    4    4    1    3    8   -0.000049   -0.000050
    4    4    1    4    8    0.000000   -0.000000
    4    4    1    5    8    0.000457    0.000056
    4    4    1    6    8    0.000110    0.000024
    4    4    1    7    8    0.000067    0.000311
    4    4    1    8    8    0.001246   -0.000000
    4    4    2    1    1   -0.000487   -0.000000
    4    4    2    2    1   -0.001167    0.000000
    4    4    2    3    1   -0.000049   -0.000057
    4    4    2    4    1   -0.000048    0.000057
    4    4    2    5    1    0.000000    0.000000
    4    4    2    6    1    0.000007    0.000007
    4    4    2    7    1    0.000256   -0.000008
    4    4    2    8    1   -0.000009    0.000256
    4    4    2    1    2    0.001167    0.000000
    4    4    2    2    2    0.000063   -0.000000
    4    4    2    3    2   -0.000005    0.000019
    4    4    2    4    2   -0.000004   -0.000019
    4    4    2    5    2    0.000007    0.000007
    4    4    2    6    2   -0.000000   -0.000000
    4    4    2    7    2   -0.000045   -0.000005
    4    4    2    8    2   -0.000006   -0.000045
    4    4    2    1    3    0.000049   -0.000057
    4    4    2    2    3   -0.000005   -0.000019
    4    4    2    3    3    0.000253    0.000000
    4    4    2    4    3   -0.000005    0.000162
    4    4    2    5    3    0.000256   -0.000008
    4    4    2    6    3    0.000045    0.000005
    4    4    2    7    3    0.000000    0.000000
    4    4    2    8    3   -0.000064    0.000065
    4    4    2    1    4    0.000048    0.000057
    4    4    2    2    4   -0.000004    0.000019
    4    4    2    3    4   -0.000005   -0.000162
    4    4    2    4    4    0.000253    0.000000
    4    4    2    5    4   -0.000009    0.000256
    4    4    2    6    4    0.000006    0.000045
    4    4    2    7    4    0.000064   -0.000065
    4    4    2    8    4    0.000000    0.000000
    4    4    2    1    5    0.000000   -0.000000
    4    4    2    2    5   -0.000007    0.000007
    4    4    2    3    5   -0.000256   -0.000008
    4    4    2    4    5    0.000009    0.000256
    4    4    2    5    5   -0.000487   -0.000000
    4    4    2    6    5   -0.001167   -0.000000
    4    4    2    7    5   -0.000049    0.000057
    4    4    2    8    5   -0.000048   -0.000057
    4    4    2    1    6   -0.000007    0.000007
    4    4    2    2    6   -0.000000    0.000000
    4    4    2    3    6    0.000045   -0.000005
    4    4    2    4    6    0.000006   -0.000045
    4    4    2    5    6    0.001167   -0.000000
    4    4    2    6    6    0.000063   -0.000000
    4    4    2    7    6   -0.000005   -0.000019
    4    4    2    8    6   -0.000004    0.000019
    4    4    2    1    7   -0.000256   -0.000008
    4    4    2    2    7   -0.000045    0.000005
    4    4    2    3    7    0.000000   -0.000000
    4    4    2    4    7    0.000064    0.000065
    4    4    2    5    7    0.000049    0.000057
    4    4    2    6    7   -0.000005    0.000019
    4    4    2    7    7    0.000253    0.000000
    4    4    2    8    7   -0.000005   -0.000162
    4    4    2    1    8    0.000009    0.000256
    4    4    2    2    8   -0.000006    0.000045
    4    4    2    3    8   -0.000064   -0.000065
    4    4    2    4    8    0.000000   -0.000000
    4    4    2    5    8    0.000048   -0.000057
    4    4    2    6    8   -0.000004   -0.000019
    4    4    2    7    8   -0.000005    0.000162
    4    4    2    8    8    0.000253   -0.000000
    4    4    3    1    1   -0.000915    0.000000
    4    4    3    2    1   -0.000658   -0.000000
    4    4    3    3    1    0.000014    0.000001
    4    4    3    4    1    0.000014   -0.000001
    4    4    3    5    1    0.000000    0.000000
    4    4    3    6    1   -0.000000   -0.000000
    4    4    3    7    1    0.000124    0.000002
    4    4    3    8    1    0.000001    0.000124
    4    4    3    1    2    0.000658   -0.000000
    4    4    3    2    2    0.000349    0.000000
    4    4    3    3    2   -0.000134    0.000045
    4    4    3    4    2   -0.000133   -0.000045
    4    4    3    5    2   -0.000000   -0.000000
    4    4    3    6    2   -0.000000   -0.000000
    4    4    3    7    2   -0.000037    0.000017
    4    4    3    8    2    0.000017   -0.000037
    4    4    3    1    3   -0.000014    0.000001
    4    4    3    2    3   -0.000134   -0.000045
    4    4    3    3    3    0.000307   -0.000000
    4    4    3    4    3   -0.000081    0.000031
    4    4    3    5    3    0.000124    0.000002
    4    4    3    6    3    0.000037   -0.000017
    4    4    3    7    3   -0.000000   -0.000000
    4    4    3    8    3   -0.000042    0.000043
    4    4    3    1    4   -0.000014   -0.000001
    4    4    3    2    4   -0.000133    0.000045
    4    4    3    3    4   -0.000081   -0.000031
    4    4    3    4    4    0.000308    0.000000
    4    4    3    5    4    0.000001    0.000124
    4    4    3    6    4   -0.000017    0.000037
    4    4    3    7    4    0.000042   -0.000043
    4    4    3    8    4   -0.000000   -0.000000
    4    4    3    1    5    0.000000   -0.000000
    4    4    3    2    5    0.000000   -0.000000
    4    4    3    3    5   -0.000124    0.000002
    4    4    3    4    5   -0.000001    0.000124
    4    4    3    5    5   -0.000915    0.000000
    4    4    3    6    5   -0.000658    0.000000
    4    4    3    7    5    0.000014   -0.000001
    4    4    3    8    5    0.000014    0.000001
    4    4    3    1    6    0.000000   -0.000000
    4    4    3    2    6   -0.000000    0.000000
    4    4    3    3    6    0.000037    0.000017
    4    4    3    4    6   -0.000017   -0.000037
    4    4    3    5    6    0.000658    0.000000
    4    4    3    6    6    0.000349   -0.000000
    4    4    3    7    6   -0.000134   -0.000045
    4    4    3    8    6   -0.000133    0.000045
    4    4    3    1    7   -0.000124    0.000002
    4    4    3    2    7   -0.000037   -0.000017
    4    4    3    3    7   -0.000000    0.000000
    4    4    3    4    7    0.000042    0.000043
    4    4    3    5    7   -0.000014   -0.000001
    4    4    3    6    7   -0.000134    0.000045
    4    4    3    7    7    0.000307   -0.000000
    4    4    3    8    7   -0.000081   -0.000031
    4    4    3    1    8   -0.000001    0.000124
    4    4    3    2    8    0.000017    0.000037
    4    4    3    3    8   -0.000042   -0.000043
    4    4    3    4    8   -0.000000    0.000000
    4    4    3    5    8   -0.000014    0.000001
    4    4    3    6    8   -0.000133   -0.000045
    4    4    3    7    8   -0.000081    0.000031
    4    4    3    8    8    0.000308   -0.000000
    4    4    4    1    1   -0.001920   -0.000000
    4    4    4    2    1   -0.000172   -0.000000
    4    4    4    3    1   -0.000178    0.000033
    4    4    4    4    1   -0.000175   -0.000033
    4    4    4    5    1    0.000000    0.000000
    4    4    4    6    1   -0.000033   -0.000033
    4    4    4    7    1    0.000033   -0.000000
    4    4    4    8    1   -0.000000    0.000033
    4    4    4    1    2    0.000172   -0.000000
    4    4    4    2    2    0.000452    0.000000
    4    4    4    3    2   -0.000088    0.000013
    4    4    4    4    2   -0.000087   -0.000013
    4    4    4    5    2   -0.000033   -0.000033
    4    4    4    6    2   -0.000000   -0.000000
    4    4    4    7    2    0.000012    0.000013
    4    4    4    8    2    0.000013    0.000012
    4    4    4    1    3    0.000178    0.000033
    4    4    4    2    3   -0.000088   -0.000013
    4    4    4    3    3    0.000447    0.000000
    4    4    4    4    3   -0.000089   -0.000012
    4    4    4    5    3    0.000033   -0.000000
    4    4    4    6    3   -0.000012   -0.000013
    4    4    4    7    3   -0.000000   -0.000000
    4    4    4    8    3   -0.000013    0.000013
    4    4    4    1    4    0.000175   -0.000033
    4    4    4    2    4   -0.000087    0.000013
    4    4    4    3    4   -0.000089    0.000012
    4    4    4    4    4    0.000449    0.000000
    4    4    4    5    4   -0.000000    0.000033
    4    4    4    6    4   -0.000013   -0.000012
    4    4    4    7    4    0.000013   -0.000013
    4    4    4    8    4   -0.000000   -0.000000
    4    4    4    1    5    0.000000   -0.000000
    4    4    4    2    5    0.000033   -0.000033
    4    4    4    3    5   -0.000033   -0.000000
    4    4    4    4    5    0.000000    0.000033
    4    4    4    5    5   -0.001920   -0.000000
    4    4    4    6    5   -0.000172    0.000000
    4    4    4    7    5   -0.000178   -0.000033
    4    4    4    8    5   -0.000175    0.000033
    4    4    4    1    6    0.000033   -0.000033
    4    4    4    2    6   -0.000000    0.000000
    4    4    4    3    6   -0.000012    0.000013
    4    4    4    4    6   -0.000013    0.000012
    4    4    4    5    6    0.000172    0.000000
    4    4    4    6    6    0.000452    0.000000
    4    4    4    7    6   -0.000088   -0.000013
    4    4    4    8    6   -0.000087    0.000013
    4    4    4    1    7   -0.000033   -0.000000
    4    4    4    2    7    0.000012   -0.000013
    4    4    4    3    7   -0.000000    0.000000
    4    4    4    4    7    0.000013    0.000013
    4    4    4    5    7    0.000178   -0.000033
    4    4    4    6    7   -0.000088    0.000013
    4    4    4    7    7    0.000447    0.000000
    4    4    4    8    7   -0.000089    0.000012
    4    4    4    1    8    0.000000    0.000033
    4    4    4    2    8    0.000013   -0.000012
    4    4    4    3    8   -0.000013   -0.000013
    4    4    4    4    8   -0.000000    0.000000
    4    4    4    5    8    0.000175    0.000033
    4    4    4    6    8   -0.000087   -0.000013
    4    4    4    7    8   -0.000089   -0.000012
    4    4    4    8    8    0.000449   -0.000000
