   2   2   0   0
  0.3955350E+02  0.2467724E-09  0.2467724E-09  0.1500000E-08  0.5000000E-15
   1.0000000000000000E-004
  CAR 
 C                                       
     12.30770186    -23.39846493  301     -2.23487128      1.00000000
    -23.398  0.0000E+00  0.0000E+00
    -23.279  0.0000E+00  0.0000E+00
    -23.160  0.0000E+00  0.0000E+00
    -23.041  0.0000E+00  0.0000E+00
    -22.922  0.0000E+00  0.0000E+00
    -22.803  0.0000E+00  0.0000E+00
    -22.684  0.0000E+00  0.0000E+00
    -22.565  0.0000E+00  0.0000E+00
    -22.446  0.0000E+00  0.0000E+00
    -22.327  0.4477E-16  0.5329E-17
    -22.208  0.6957E-11  0.8280E-12
    -22.089  0.6809E-07  0.8105E-08
    -21.970  0.4485E-04  0.5346E-05
    -21.851  0.2548E-02  0.3086E-03
    -21.732  0.2540E-01  0.3331E-02
    -21.613  0.5900E-01  0.1035E-01
    -21.494  0.4753E-01  0.1601E-01
    -21.375  0.8438E-01  0.2605E-01
    -21.256  0.5776E-01  0.3293E-01
    -21.137  0.2295E-01  0.3566E-01
    -21.018  0.9770E-01  0.4729E-01
    -20.899  0.7758E-01  0.5652E-01
    -20.780  0.5750E-01  0.6337E-01
    -20.661  0.2183E-01  0.6596E-01
    -20.542  0.4022E-01  0.7075E-01
    -20.423  0.1251E+00  0.8564E-01
    -20.304  0.9254E-01  0.9666E-01
    -20.185  0.2170E-01  0.9924E-01
    -20.066  0.5259E-01  0.1055E+00
    -19.947  0.2710E-01  0.1087E+00
    -19.828  0.5984E-01  0.1158E+00
    -19.709  0.1089E+00  0.1288E+00
    -19.590  0.1025E+00  0.1410E+00
    -19.471  0.7776E-01  0.1503E+00
    -19.352  0.7966E-02  0.1512E+00
    -19.233  0.2241E-01  0.1539E+00
    -19.114  0.5626E-01  0.1606E+00
    -18.995  0.6117E-01  0.1679E+00
    -18.876  0.1322E+00  0.1836E+00
    -18.757  0.8053E-01  0.1932E+00
    -18.638  0.4439E-01  0.1985E+00
    -18.519  0.1074E+00  0.2112E+00
    -18.400  0.3165E-01  0.2150E+00
    -18.281  0.1131E-02  0.2151E+00
    -18.162  0.1417E-01  0.2168E+00
    -18.043  0.9246E-01  0.2278E+00
    -17.924  0.1360E+00  0.2440E+00
    -17.804  0.1046E+00  0.2565E+00
    -17.685  0.8955E-01  0.2671E+00
    -17.566  0.1365E-01  0.2688E+00
    -17.447  0.5365E-01  0.2751E+00
    -17.328  0.1023E+00  0.2873E+00
    -17.209  0.2035E-01  0.2897E+00
    -17.090  0.1738E-02  0.2899E+00
    -16.971  0.4179E-01  0.2949E+00
    -16.852  0.1787E+00  0.3162E+00
    -16.733  0.1318E+00  0.3319E+00
    -16.614  0.8963E-01  0.3425E+00
    -16.495  0.1109E+00  0.3557E+00
    -16.376  0.6167E-01  0.3631E+00
    -16.257  0.1132E-01  0.3644E+00
    -16.138  0.2913E-03  0.3645E+00
    -16.019  0.6608E-02  0.3652E+00
    -15.900  0.5868E-01  0.3722E+00
    -15.781  0.1257E+00  0.3872E+00
    -15.662  0.7246E-01  0.3958E+00
    -15.543  0.8759E-02  0.3969E+00
    -15.424  0.3846E-01  0.4014E+00
    -15.305  0.4290E-01  0.4065E+00
    -15.186  0.1150E-01  0.4079E+00
    -15.067  0.4910E-01  0.4138E+00
    -14.948  0.7978E-01  0.4232E+00
    -14.829  0.1649E+00  0.4429E+00
    -14.710  0.1086E+00  0.4558E+00
    -14.591  0.9091E-02  0.4569E+00
    -14.472  0.3026E-02  0.4572E+00
    -14.353  0.8121E-01  0.4669E+00
    -14.234  0.2130E+00  0.4923E+00
    -14.115  0.5989E-01  0.4994E+00
    -13.996  0.1356E-01  0.5010E+00
    -13.877  0.9099E-01  0.5118E+00
    -13.758  0.7106E-01  0.5203E+00
    -13.639  0.2105E-01  0.5228E+00
    -13.520  0.5670E-01  0.5295E+00
    -13.401  0.7687E-01  0.5387E+00
    -13.282  0.1284E+00  0.5540E+00
    -13.163  0.6993E-01  0.5623E+00
    -13.044  0.1045E-01  0.5635E+00
    -12.925  0.1525E-02  0.5637E+00
    -12.806  0.2279E-01  0.5664E+00
    -12.687  0.9943E-01  0.5783E+00
    -12.568  0.9151E-01  0.5892E+00
    -12.449  0.9971E-01  0.6010E+00
    -12.330  0.7270E-01  0.6097E+00
    -12.211  0.6884E-01  0.6179E+00
    -12.092  0.9623E-01  0.6293E+00
    -11.972  0.2245E-01  0.6320E+00
    -11.853  0.6376E-01  0.6396E+00
    -11.734  0.1390E+00  0.6561E+00
    -11.615  0.1153E+00  0.6699E+00
    -11.496  0.3149E-01  0.6736E+00
    -11.377  0.1710E-02  0.6738E+00
    -11.258  0.1273E-01  0.6753E+00
    -11.139  0.7376E-01  0.6841E+00
    -11.020  0.1499E+00  0.7019E+00
    -10.901  0.2300E+00  0.7293E+00
    -10.782  0.6898E-01  0.7375E+00
    -10.663  0.6479E-02  0.7383E+00
    -10.544  0.6502E-01  0.7460E+00
    -10.425  0.9530E-01  0.7574E+00
    -10.306  0.1896E-01  0.7596E+00
    -10.187  0.7677E-01  0.7688E+00
    -10.068  0.1480E+00  0.7864E+00
     -9.949  0.6523E-01  0.7942E+00
     -9.830  0.1293E+00  0.8095E+00
     -9.711  0.1745E+00  0.8303E+00
     -9.592  0.1875E+00  0.8526E+00
     -9.473  0.9680E-01  0.8642E+00
     -9.354  0.9648E-01  0.8756E+00
     -9.235  0.1883E+00  0.8980E+00
     -9.116  0.1821E+00  0.9197E+00
     -8.997  0.1593E+00  0.9387E+00
     -8.878  0.2221E+00  0.9651E+00
     -8.759  0.1683E+00  0.9852E+00
     -8.640  0.1665E+00  0.1005E+01
     -8.521  0.2605E+00  0.1036E+01
     -8.402  0.2288E+00  0.1063E+01
     -8.283  0.2048E+00  0.1088E+01
     -8.164  0.1324E+00  0.1103E+01
     -8.045  0.1480E+00  0.1121E+01
     -7.926  0.1369E+00  0.1137E+01
     -7.807  0.6278E-01  0.1145E+01
     -7.688  0.9498E-01  0.1156E+01
     -7.569  0.2202E+00  0.1182E+01
     -7.450  0.2282E+00  0.1209E+01
     -7.331  0.2312E+00  0.1237E+01
     -7.212  0.1118E+00  0.1250E+01
     -7.093  0.1118E-01  0.1252E+01
     -6.974  0.8186E-02  0.1253E+01
     -6.855  0.8271E-01  0.1262E+01
     -6.736  0.1649E+00  0.1282E+01
     -6.617  0.2065E+00  0.1307E+01
     -6.498  0.1924E+00  0.1329E+01
     -6.379  0.1233E+00  0.1344E+01
     -6.260  0.7353E-01  0.1353E+01
     -6.140  0.1171E+00  0.1367E+01
     -6.021  0.8715E-01  0.1377E+01
     -5.902  0.7974E-01  0.1387E+01
     -5.783  0.5555E-01  0.1393E+01
     -5.664  0.1101E+00  0.1406E+01
     -5.545  0.1337E+00  0.1422E+01
     -5.426  0.1891E+00  0.1445E+01
     -5.307  0.1450E+00  0.1462E+01
     -5.188  0.6520E-01  0.1470E+01
     -5.069  0.1032E+00  0.1482E+01
     -4.950  0.6102E-01  0.1489E+01
     -4.831  0.1953E-01  0.1492E+01
     -4.712  0.5386E-01  0.1498E+01
     -4.593  0.2967E-01  0.1502E+01
     -4.474  0.1084E+00  0.1515E+01
     -4.355  0.2877E+00  0.1549E+01
     -4.236  0.1257E+00  0.1564E+01
     -4.117  0.5708E-02  0.1564E+01
     -3.998  0.3286E-04  0.1564E+01
     -3.879  0.2271E-02  0.1565E+01
     -3.760  0.3304E-01  0.1569E+01
     -3.641  0.4726E-01  0.1574E+01
     -3.522  0.7370E-02  0.1575E+01
     -3.403  0.2216E-01  0.1578E+01
     -3.284  0.1036E+00  0.1590E+01
     -3.165  0.5074E-01  0.1596E+01
     -3.046  0.2370E-02  0.1596E+01
     -2.927  0.8570E-05  0.1596E+01
     -2.808  0.2099E-08  0.1596E+01
     -2.689  0.4083E-11  0.1596E+01
     -2.570  0.6461E-07  0.1596E+01
     -2.451  0.6731E-04  0.1596E+01
     -2.332  0.5021E-02  0.1597E+01
     -2.213  0.3210E-01  0.1601E+01
     -2.094  0.2118E-01  0.1603E+01
     -1.975  0.1368E-02  0.1604E+01
     -1.856  0.7007E-05  0.1604E+01
     -1.737  0.2463E-08  0.1604E+01
     -1.618  0.1182E-09  0.1604E+01
     -1.499  0.1054E-05  0.1604E+01
     -1.380  0.6227E-03  0.1604E+01
     -1.261  0.2715E-01  0.1607E+01
     -1.142  0.1064E+00  0.1620E+01
     -1.023  0.5286E-01  0.1626E+01
     -0.904  0.5205E-01  0.1632E+01
     -0.785  0.2839E-01  0.1635E+01
     -0.666  0.1176E-01  0.1637E+01
     -0.547  0.7569E-01  0.1646E+01
     -0.427  0.1440E+00  0.1663E+01
     -0.308  0.1097E+00  0.1676E+01
     -0.189  0.1149E+00  0.1690E+01
     -0.070  0.1113E+00  0.1703E+01
      0.049  0.6230E-01  0.1710E+01
      0.168  0.8781E-01  0.1721E+01
      0.287  0.8200E-01  0.1731E+01
      0.406  0.8387E-02  0.1732E+01
      0.525  0.1152E-03  0.1732E+01
      0.644  0.6397E-02  0.1732E+01
      0.763  0.7553E-01  0.1741E+01
      0.882  0.1074E+00  0.1754E+01
      1.001  0.6859E-01  0.1762E+01
      1.120  0.6226E-01  0.1770E+01
      1.239  0.1606E+00  0.1789E+01
      1.358  0.7346E-01  0.1798E+01
      1.477  0.4696E-01  0.1803E+01
      1.596  0.7596E-01  0.1812E+01
      1.715  0.1148E+00  0.1826E+01
      1.834  0.1042E+00  0.1838E+01
      1.953  0.3777E-01  0.1843E+01
      2.072  0.1265E+00  0.1858E+01
      2.191  0.1169E+00  0.1872E+01
      2.310  0.7516E-01  0.1881E+01
      2.429  0.1976E+00  0.1904E+01
      2.548  0.1635E+00  0.1924E+01
      2.667  0.1829E+00  0.1945E+01
      2.786  0.1870E+00  0.1968E+01
      2.905  0.1831E+00  0.1989E+01
      3.024  0.2510E+00  0.2019E+01
      3.143  0.1234E+00  0.2034E+01
      3.262  0.6844E-01  0.2042E+01
      3.381  0.1088E+00  0.2055E+01
      3.500  0.1572E+00  0.2074E+01
      3.619  0.2036E+00  0.2098E+01
      3.738  0.1785E+00  0.2119E+01
      3.857  0.2676E+00  0.2151E+01
      3.976  0.1483E+00  0.2169E+01
      4.095  0.2151E+00  0.2194E+01
      4.214  0.1826E+00  0.2216E+01
      4.333  0.1358E+00  0.2232E+01
      4.452  0.1422E+00  0.2249E+01
      4.571  0.1303E+00  0.2265E+01
      4.690  0.1972E+00  0.2288E+01
      4.809  0.2221E+00  0.2315E+01
      4.928  0.2142E+00  0.2340E+01
      5.047  0.2806E+00  0.2374E+01
      5.166  0.1951E+00  0.2397E+01
      5.285  0.2536E+00  0.2427E+01
      5.405  0.3797E+00  0.2472E+01
      5.524  0.3451E+00  0.2513E+01
      5.643  0.3713E+00  0.2557E+01
      5.762  0.2882E+00  0.2592E+01
      5.881  0.1915E+00  0.2614E+01
      6.000  0.1920E+00  0.2637E+01
      6.119  0.8255E-01  0.2647E+01
      6.238  0.9478E-01  0.2658E+01
      6.357  0.1735E+00  0.2679E+01
      6.476  0.2366E+00  0.2707E+01
      6.595  0.2641E+00  0.2739E+01
      6.714  0.1076E+00  0.2751E+01
      6.833  0.3422E-01  0.2756E+01
      6.952  0.1275E+00  0.2771E+01
      7.071  0.2026E+00  0.2795E+01
      7.190  0.3178E+00  0.2833E+01
      7.309  0.1248E+00  0.2848E+01
      7.428  0.4321E-01  0.2853E+01
      7.547  0.1074E+00  0.2865E+01
      7.666  0.3394E-01  0.2869E+01
      7.785  0.5294E-01  0.2876E+01
      7.904  0.2118E+00  0.2901E+01
      8.023  0.2461E+00  0.2930E+01
      8.142  0.1608E+00  0.2949E+01
      8.261  0.8986E-01  0.2960E+01
      8.380  0.1438E+00  0.2977E+01
      8.499  0.1974E+00  0.3001E+01
      8.618  0.2714E+00  0.3033E+01
      8.737  0.2111E+00  0.3058E+01
      8.856  0.6552E-01  0.3066E+01
      8.975  0.9035E-01  0.3077E+01
      9.094  0.1907E+00  0.3099E+01
      9.213  0.2060E+00  0.3124E+01
      9.332  0.4564E-01  0.3129E+01
      9.451  0.7889E-01  0.3139E+01
      9.570  0.1538E+00  0.3157E+01
      9.689  0.7224E-01  0.3166E+01
      9.808  0.4455E-01  0.3171E+01
      9.927  0.5216E-02  0.3172E+01
     10.046  0.5237E-04  0.3172E+01
     10.165  0.3319E-03  0.3172E+01
     10.284  0.1965E-01  0.3174E+01
     10.403  0.1017E+00  0.3186E+01
     10.522  0.5537E-01  0.3193E+01
     10.641  0.1833E-01  0.3195E+01
     10.760  0.3512E-01  0.3199E+01
     10.879  0.8309E-02  0.3200E+01
     10.998  0.1753E-03  0.3200E+01
     11.117  0.2715E-06  0.3200E+01
     11.237  0.2779E-10  0.3200E+01
     11.356  0.1791E-15  0.3200E+01
     11.475  0.0000E+00  0.3200E+01
     11.594  0.0000E+00  0.3200E+01
     11.713  0.0000E+00  0.3200E+01
     11.832  0.0000E+00  0.3200E+01
     11.951  0.0000E+00  0.3200E+01
     12.070  0.0000E+00  0.3200E+01
     12.189  0.0000E+00  0.3200E+01
     12.308  0.0000E+00  0.3200E+01
