    2    2    5    1
  0.3955350E+02  0.2467724E-09  0.2467724E-09  0.1500000E-08  0.5000000E-15
   1.0000000000000000E-004
  CAR 
 C                                       
      8     27      8

  0.3742002E-15  0.3742002E-15  0.1262379E-14  0.4444444E-02
    1      -21.775457   1.000000
    2       -9.870887   1.000000
    3       -5.265174   1.000000
    4       -5.265118   1.000000
    5        1.045344   0.000000
    6        1.983856   0.000000
    7        2.488142   0.000000
    8        4.375873   0.000000

  0.6666667E-01  0.3677614E-15  0.1262379E-14  0.2666667E-01
    1      -21.670266   1.000000
    2       -9.744957   1.000000
    3       -5.691690   1.000000
    4       -5.489001   1.000000
    5        1.188039   0.000000
    6        2.127836   0.000000
    7        2.633699   0.000000
    8        4.519226   0.000000

  0.1333333E+00  0.3608225E-15  0.1262379E-14  0.2666667E-01
    1      -21.355413   1.000000
    2       -9.370102   1.000000
    3       -6.822186   1.000000
    4       -6.053589   1.000000
    5        1.616215   0.000000
    6        2.558957   0.000000
    7        3.070443   0.000000
    8        4.948089   0.000000

  0.2000000E+00  0.3469447E-15  0.1262379E-14  0.2666667E-01
    1      -20.833198   1.000000
    2       -8.753121   1.000000
    3       -8.373883   1.000000
    4       -6.760306   1.000000
    5        2.329225   0.000000
    6        3.274061   0.000000
    7        3.798137   0.000000
    8        5.650175   0.000000

  0.2666667E+00  0.3330669E-15  0.1262379E-14  0.2666667E-01
    1      -20.107888   1.000000
    2      -10.108214   1.000000
    3       -7.909497   1.000000
    4       -7.447053   1.000000
    5        3.324874   0.000000
    6        4.197902   0.000000
    7        4.654847   0.000000
    8        4.814572   0.000000

  0.3333333E+00  0.3885781E-15  0.1262379E-14  0.2666667E-01
    1      -19.187060   1.000000
    2      -11.874368   1.000000
    3       -8.018206   1.000000
    4       -6.871157   1.000000
    5        2.686535   0.000000
    6        4.593163   0.000000
    7        5.497289   0.000000
    8        5.587604   0.000000

  0.4000000E+00  0.3053113E-15  0.1262379E-14  0.2666667E-01
    1      -18.087050   1.000000
    2      -13.573703   1.000000
    3       -8.420614   1.000000
    4       -5.725786   1.000000
    5        0.934192   0.000000
    6        5.267781   0.000000
    7        6.180049   0.000000
    8        7.140251   0.000000

  0.4666667E+00  0.3053113E-15  0.1262379E-14  0.2666667E-01
    1      -16.885943   1.000000
    2      -15.084252   1.000000
    3       -8.627698   1.000000
    4       -4.767139   1.000000
    5       -0.346594   0.000000
    6        5.171016   0.000000
    7        7.983690   0.000000
    8        8.947386   0.000000

  0.6666667E-01  0.6666667E-01  0.1262379E-14  0.2666667E-01
    1      -21.460241   1.000000
    2       -9.494532   1.000000
    3       -6.417359   1.000000
    4       -5.935091   1.000000
    5        1.473556   0.000000
    6        2.415423   0.000000
    7        2.924892   0.000000
    8        4.805440   0.000000

  0.1333333E+00  0.6666667E-01  0.1262379E-14  0.5333333E-01
    1      -21.041720   1.000000
    2       -8.998313   1.000000
    3       -7.670312   1.000000
    4       -6.661992   1.000000
    5        2.044469   0.000000
    6        2.989132   0.000000
    7        3.507328   0.000000
    8        5.375426   0.000000

  0.2000000E+00  0.6666667E-01  0.1262379E-14  0.5333333E-01
    1      -20.417952   1.000000
    2       -9.253581   1.000000
    3       -8.266725   1.000000
    4       -7.418550   1.000000
    5        2.899546   0.000000
    6        3.840785   0.000000
    7        4.380516   0.000000
    8        5.346691   0.000000

  0.2666667E+00  0.6666667E-01  0.1262379E-14  0.5333333E-01
    1      -19.594752   1.000000
    2      -10.973304   1.000000
    3       -8.079566   1.000000
    4       -7.321253   1.000000
    5        3.530171   0.000000
    6        4.035273   0.000000
    7        5.015123   0.000000
    8        5.539175   0.000000

  0.3333333E+00  0.6666667E-01  0.1262379E-14  0.5333333E-01
    1      -18.582993   1.000000
    2      -12.691984   1.000000
    3       -8.581855   1.000000
    4       -6.213113   1.000000
    5        1.737149   0.000000
    6        5.426437   0.000000
    7        5.874625   0.000000
    8        6.422722   0.000000

  0.4000000E+00  0.6666667E-01  0.1262379E-14  0.5333333E-01
    1      -17.413124   1.000000
    2      -14.309235   1.000000
    3       -8.893512   1.000000
    4       -5.095052   1.000000
    5        0.168342   0.000000
    6        5.678444   0.000000
    7        7.151876   0.000000
    8        8.095128   0.000000

  0.4666667E+00  0.6666667E-01  0.1262379E-14  0.2666667E-01
    1      -16.456661   1.000000
    2      -15.418334   1.000000
    3       -8.999173   1.000000
    4       -4.505921   1.000000
    5       -0.578887   0.000000
    6        5.627820   0.000000
    7        8.997594   0.000000
    8        9.158549   0.000000

  0.1333333E+00  0.1333333E+00  0.1262379E-14  0.2666667E-01
    1      -20.521655   1.000000
    2       -8.771478   1.000000
    3       -8.386620   1.000000
    4       -7.625345   1.000000
    5        2.757901   0.000000
    6        3.703627   0.000000
    7        4.235613   0.000000
    8        5.646841   0.000000

  0.2000000E+00  0.1333333E+00  0.1262379E-14  0.5333333E-01
    1      -19.799942   1.000000
    2      -10.166863   1.000000
    3       -8.531482   1.000000
    4       -7.549579   1.000000
    5        3.754144   0.000000
    6        4.078242   0.000000
    7        4.706198   0.000000
    8        5.254511   0.000000

  0.2666667E+00  0.1333333E+00  0.1262379E-14  0.5333333E-01
    1      -18.884943   1.000000
    2      -11.757843   1.000000
    3       -9.205712   1.000000
    4       -6.518698   1.000000
    5        2.403479   0.000000
    6        5.028438   0.000000
    7        5.970095   0.000000
    8        6.560032   0.000000

  0.3333333E+00  0.1333333E+00  0.1262379E-14  0.5333333E-01
    1      -17.794370   1.000000
    2      -13.369728   1.000000
    3       -9.650149   1.000000
    4       -5.373472   1.000000
    5        0.770969   0.000000
    6        6.558136   0.000000
    7        7.038207   0.000000
    8        7.482894   0.000000

  0.4000000E+00  0.1333333E+00  0.1262379E-14  0.5333333E-01
    1      -16.608474   1.000000
    2      -14.833849   1.000000
    3       -9.871984   1.000000
    4       -4.393070   1.000000
    5       -0.470401   0.000000
    6        6.901826   0.000000
    7        8.383281   0.000000
    8        9.117199   0.000000

  0.2000000E+00  0.2000000E+00  0.1262379E-14  0.2666667E-01
    1      -18.986230   1.000000
    2      -11.181261   1.000000
    3       -9.704026   1.000000
    4       -6.622411   1.000000
    5        2.678199   0.000000
    6        4.888674   0.000000
    7        5.810878   0.000000
    8        6.418649   0.000000

  0.2666667E+00  0.2000000E+00  0.1262379E-14  0.5333333E-01
    1      -17.989941   1.000000
    2      -12.464624   1.000000
    3      -10.523969   1.000000
    4       -5.528130   1.000000
    5        1.198021   0.000000
    6        6.294625   0.000000
    7        7.149956   0.000000
    8        7.869460   0.000000

  0.3333333E+00  0.2000000E+00  0.1262379E-14  0.5333333E-01
    1      -16.845158   1.000000
    2      -13.890253   1.000000
    3      -10.951281   1.000000
    4       -4.391018   1.000000
    5       -0.194929   0.000000
    6        7.945711   0.000000
    7        8.515408   0.000000
    8        8.695964   0.000000

  0.4000000E+00  0.2000000E+00  0.1262379E-14  0.2666667E-01
    1      -15.916406   1.000000
    2      -14.928237   1.000000
    3      -11.084211   1.000000
    4       -3.741084   1.000000
    5       -0.934296   0.000000
    6        8.615180   0.000000
    7        9.109629   0.000000
    8        9.697593   0.000000

  0.2666667E+00  0.2666667E+00  0.1262379E-14  0.2666667E-01
    1      -16.933035   1.000000
    2      -13.247549   1.000000
    3      -11.647789   1.000000
    4       -4.403869   1.000000
    5       -0.051315   0.000000
    6        7.812803   0.000000
    7        8.273249   0.000000
    8        9.459003   0.000000

  0.3333333E+00  0.2666667E+00  0.1262379E-14  0.5333333E-01
    1      -15.795437   1.000000
    2      -14.293700   1.000000
    3      -12.188833   1.000000
    4       -3.321819   1.000000
    5       -1.188833   0.000000
    6        8.583844   0.000000
    7        9.502750   0.000000
    8       10.370536   0.000000

  0.3333333E+00  0.3333333E+00  0.1262379E-14  0.8888889E-02
    1      -14.841020   1.000000
    2      -14.840987   1.000000
    3      -12.802854   1.000000
    4       -2.234884   0.500074
    5       -2.234858   0.499926
    6        8.385708   0.000000
    7       10.684665   0.000000
    8       10.684694   0.000000
