       N       E                     dE             d eps       ncg     rms          rms(c)
DAV:   1     0.310050921908E+02    0.31005E+02   -0.34017E+03   480   0.612E+02
DAV:   2    -0.171126114088E+02   -0.48118E+02   -0.42387E+02   544   0.130E+02
DAV:   3    -0.197043286659E+02   -0.25917E+01   -0.25467E+01   688   0.388E+01
DAV:   4    -0.197160683882E+02   -0.11740E-01   -0.11740E-01   640   0.225E+00
DAV:   5    -0.197162297480E+02   -0.16136E-03   -0.16136E-03   680   0.126E-01    0.633E+00
DAV:   6    -0.188196723857E+02    0.89656E+00   -0.86079E-01   544   0.663E+00    0.374E+00
DAV:   7    -0.184714246624E+02    0.34825E+00   -0.11715E+00   680   0.758E+00    0.986E-01
DAV:   8    -0.184636194866E+02    0.78052E-02   -0.11962E-02   616   0.101E+00    0.119E-01
DAV:   9    -0.184628212207E+02    0.79827E-03   -0.51177E-04   616   0.148E-01    0.810E-02
DAV:  10    -0.184606138527E+02    0.22074E-02   -0.42056E-03   568   0.314E-01    0.574E-02
DAV:  11    -0.184607997230E+02   -0.18587E-03   -0.13059E-04   456   0.692E-02    0.678E-02
DAV:  12    -0.184610777931E+02   -0.27807E-03   -0.41185E-05   536   0.540E-02    0.212E-02
DAV:  13    -0.184617826358E+02   -0.70484E-03   -0.17662E-04   544   0.517E-02    0.998E-03
DAV:  14    -0.184618465263E+02   -0.63891E-04   -0.22169E-06   640   0.614E-03    0.742E-03
DAV:  15    -0.184619565958E+02   -0.11007E-03   -0.91011E-06   480   0.123E-02    0.235E-03
DAV:  16    -0.184619632190E+02   -0.66233E-05   -0.15715E-07   576   0.267E-03    0.425E-04
DAV:  17    -0.184619644839E+02   -0.12649E-05   -0.37132E-08   480   0.104E-03    0.206E-04
DAV:  18    -0.184619648171E+02   -0.33322E-06   -0.65607E-09   552   0.533E-04
   1 F= -.18461965E+02 E0= -.18461463E+02  d E =-.184620E+02
       N       E                     dE             d eps       ncg     rms          rms(c)
DAV:   1    -0.184610085923E+02    0.95589E-03   -0.54084E-02   448   0.245E+00    0.160E-01
DAV:   2    -0.184607044773E+02    0.30412E-03   -0.57842E-04   544   0.220E-01    0.108E-01
DAV:   3    -0.184604945942E+02    0.20988E-03   -0.29810E-04   528   0.135E-01    0.198E-02
DAV:   4    -0.184604960582E+02   -0.14640E-05   -0.69214E-06   536   0.226E-02    0.754E-03
DAV:   5    -0.184604995018E+02   -0.34436E-05   -0.17794E-06   536   0.108E-02    0.334E-03
DAV:   6    -0.184605007650E+02   -0.12632E-05   -0.30749E-08   520   0.163E-03    0.237E-03
DAV:   7    -0.184605075172E+02   -0.67522E-05   -0.14172E-06   456   0.580E-03    0.918E-04
DAV:   8    -0.184605087470E+02   -0.12298E-05   -0.44351E-08   616   0.129E-03    0.646E-04
DAV:   9    -0.184605102681E+02   -0.15211E-05   -0.79996E-08   544   0.183E-03    0.387E-04
DAV:  10    -0.184605109441E+02   -0.67601E-06   -0.36420E-08   560   0.124E-03
   2 F= -.18460511E+02 E0= -.18460009E+02  d E =0.145387E-02
       N       E                     dE             d eps       ncg     rms          rms(c)
DAV:   1    -0.184625273769E+02   -0.20171E-02   -0.26942E-02   448   0.172E+00    0.115E-01
DAV:   2    -0.184623653759E+02    0.16200E-03   -0.26345E-04   488   0.153E-01    0.752E-02
DAV:   3    -0.184622480440E+02    0.11733E-03   -0.13852E-04   584   0.921E-02    0.129E-02
DAV:   4    -0.184622513366E+02   -0.32927E-05   -0.28496E-06   608   0.146E-02    0.528E-03
DAV:   5    -0.184622590500E+02   -0.77134E-05   -0.15634E-06   488   0.855E-03    0.257E-03
DAV:   6    -0.184622599917E+02   -0.94170E-06   -0.24094E-08   672   0.119E-03
   3 F= -.18462260E+02 E0= -.18461758E+02  d E =-.295175E-03
