C                                       
           1
     2.467724    0.000000    0.000000
    -1.233862    2.137111    0.000000
     0.000000    0.000000   15.000000
   C 
   2
Direct configuration=     1
   0.00000000  0.00000000  0.14475063
   0.66666698  0.33333300  0.14475063
C                                       
           1
     2.455495    0.000000    0.000000
    -1.227747    2.126521    0.000000
     0.000000    0.000000   15.000000
   C 
   2
Direct configuration=     2
   0.00000000  0.00000000  0.14475063
   0.66666698  0.33333300  0.14475063
C                                       
           1
     2.464138    0.000000    0.000000
    -1.232069    2.134006    0.000000
     0.000000    0.000000   15.000000
   C 
   2
Direct configuration=     3
   0.00000000  0.00000000  0.14475063
   0.66666698  0.33333300  0.14475063
