 
             +---------------------------------------------------+
             |                                                   |
             |                   WANNIER90                       |
             |                                                   |
             +---------------------------------------------------+
             |                                                   |
             |        Welcome to the Maximally-Localized         |
             |        Generalized Wannier Functions code         |
             |            http://www.wannier.org                 |
             |                                                   |
             |  Wannier90 Authors:                               |
             |    Arash A. Mostofi   (Imperial College London)   |
             |    Jonathan R. Yates  (University of Oxford)      |
             |    Young-Su Lee       (KIST, S. Korea)            |
             |                                                   |
             |  Wannier90 Contributors:                          |
             |    Matthew Shelley    (Imperial College London)   |
             |    Nicolas Poilvert   (MIT)                       |
             |                                                   |
             |  Wannier77 Authors:                               |
             |    Nicola Marzari     (University of Oxford)      |
             |    Ivo Souza          (UC Berkeley)               |
             |    David Vanderbilt   (Rutgers University)        |
             |                                                   |
             |  Please cite                                      |
             |                                                   |
             |  [ref] "Wannier90: A Tool for Obtaining Maximally |
             |         Localised Wannier Functions"              |
             |        A. A. Mostofi, J. R. Yates, Y.-S. Lee,     |
             |        I. Souza, D. Vanderbilt and N. Marzari     |
             |        Comput. Phys. Commun. 178, 685 (2008)      |
             |                                                   |
             |  in any publications arising from the use of      |
             |  this code. For the method please cite            |
             |                                                   |
             |  [ref] "Maximally Localized Generalised Wannier   |
             |         Functions for Composite Energy Bands"     |
             |         N. Marzari and D. Vanderbilt              |
             |         Phys. Rev. B 56 12847 (1997)              |
             |                                                   |
             |  [ref] "Maximally Localized Wannier Functions     |
             |         for Entangled Energy Bands"               |
             |         I. Souza, N. Marzari and D. Vanderbilt    |
             |         Phys. Rev. B 65 035109 (2001)             |
             |                                                   |
             |                                                   |
             | Copyright (c) 1996-2010                           |
             |        A. A. Mostofi, J. R. Yates, Y.-S. Lee,     |
             |        I. Souza, D. Vanderbilt and N. Marzari     |
             |                                                   |
             |        Release: 1.2        24th Jan 2010          |
             |                                                   |
             | This program is free software; you can            |
             | redistribute it and/or modify it under the terms  |
             | of the GNU General Public License as published by |
             | the Free Software Foundation; either version 2 of |
             | the License, or (at your option) any later version|
             |                                                   |
             | This program is distributed in the hope that it   |
             | will be useful, but WITHOUT ANY WARRANTY; without |
             | even the implied warranty of MERCHANTABILITY or   |
             | FITNESS FOR A PARTICULAR PURPOSE. See the GNU     |
             | General Public License for more details.          |
             |                                                   |
             | You should have received a copy of the GNU General|
             | Public License along with this program; if not,   |
             | write to the Free Software Foundation, Inc.,      |
             | 675 Mass Ave, Cambridge, MA 02139, USA.           |
             |                                                   |
             +---------------------------------------------------+
             |    Execution started on 31Dec2017 at 00:32:06     |
             +---------------------------------------------------+
 
                                    ------
                                    SYSTEM
                                    ------
 
                              Lattice Vectors (Ang)
                    a_1     4.360000   0.000000   0.000000
                    a_2     0.000000   5.759400   0.000000
                    a_3     0.000000   0.000000  18.000000
 
                   Unit Cell Volume:     451.99771  (Ang^3)
 
                        Reciprocal-Space Vectors (Ang^-1)
                    b_1     1.441098   0.000000   0.000000
                    b_2     0.000000   1.090944   0.000000
                    b_3     0.000000   0.000000   0.349066
  
 *----------------------------------------------------------------------------*
 |   Site       Fractional Coordinate          Cartesian Coordinate (Ang)     |
 +----------------------------------------------------------------------------+
 | Te   1   0.25582   0.96414   0.53266   |    1.11538   5.55287   9.58788    |
 | Te   2   0.66707   0.62571   0.58927   |    2.90842   3.60371  10.60686    |
 | Te   3   0.66470   0.30354   0.47573   |    2.89809   1.74821   8.56314    |
 *----------------------------------------------------------------------------*
  
                                ------------
                                K-POINT GRID
                                ------------
  
             Grid size = 12 x 10 x  1      Total points =  120
  
  
 *---------------------------------- MAIN ------------------------------------*
 |  Number of Wannier Functions               :                18             |
 |  Number of input Bloch states              :                18             |
 |  Output verbosity (1=low, 5=high)          :                 1             |
 |  Timing Level (1=low, 5=high)              :                 1             |
 |  Optimisation (0=memory, 3=speed)          :                 3             |
 |  Length Unit                               :               Ang             |
 |  Post-processing setup (write *.nnkp)      :                 F             |
 |  Using Gamma-only branch of algorithms     :                 F             |
 *----------------------------------------------------------------------------*
 *------------------------------- WANNIERISE ---------------------------------*
 |  Total number of iterations                :               100             |
 |  Number of CG steps before reset           :                 5             |
 |  Trial step length for line search         :             2.000             |
 |  Convergence tolerence                     :         0.100E-09             |
 |  Convergence window                        :                -1             |
 |  Iterations between writing output         :                 1             |
 |  Iterations between backing up to disk     :               100             |
 |  Write r^2_nm to file                      :                 F             |
 |  Write xyz WF centres to file              :                 T             |
 |  Use guiding centre to control phases      :                 T             |
 |  Iterations before starting guiding centres:                 0             |
 |  Iterations between using guiding centres  :                 1             |
 *----------------------------------------------------------------------------*
 *-------------------------------- PLOTTING ----------------------------------*
 |  Plotting Hamiltonian in WF basis          :                 T             |
 *----------------------------------------------------------------------------*
 Time to read parameters        0.004 (sec)

 *---------------------------------- K-MESH ----------------------------------*
 +----------------------------------------------------------------------------+
 |                    Distance to Nearest-Neighbour Shells                    |
 |                    ------------------------------------                    |
 |          Shell             Distance (Ang^-1)          Multiplicity         |
 |          -----             -----------------          ------------         |
 |             1                   0.109094                      2            |
 |             2                   0.120091                      2            |
 |             3                   0.162245                      4            |
 |             4                   0.218189                      2            |
 |             5                   0.240183                      2            |
 |             6                   0.249055                      4            |
 |             7                   0.263798                      4            |
 |             8                   0.324491                      4            |
 |             9                   0.327283                      2            |
 |            10                   0.348621                      4            |
 |            11                   0.349066                      2            |
 |            12                   0.360274                      2            |
 +----------------------------------------------------------------------------+
 | The b-vectors are chosen automatically                                     |
 | SVD found small singular value, Rejecting this shell and trying the next   |
 | SVD found small singular value, Rejecting this shell and trying the next   |
 | SVD found small singular value, Rejecting this shell and trying the next   |
 | SVD found small singular value, Rejecting this shell and trying the next   |
 | SVD found small singular value, Rejecting this shell and trying the next   |
 | The following shells are used:   1,  2, 11                                 |
 +----------------------------------------------------------------------------+
 |                        Shell   # Nearest-Neighbours                        |
 |                        -----   --------------------                        |
 |                          1               2                                 |
 |                          2               2                                 |
 |                         11               2                                 |
 +----------------------------------------------------------------------------+
 | Completeness relation is fully satisfied [Eq. (B1), PRB 56, 12847 (1997)]  |
 +----------------------------------------------------------------------------+
 |                  b_k Vectors (Ang^-1) and Weights (Ang^2)                  |
 |                  ----------------------------------------                  |
 |            No.         b_k(x)      b_k(y)      b_k(z)        w_b           |
 |            ---        --------------------------------     --------        |
 |             1         0.000000    0.109094    0.000000    42.011166        |
 |             2         0.000000   -0.109094    0.000000    42.011166        |
 |             3         0.120091    0.000000    0.000000    34.669355        |
 |             4        -0.120091    0.000000    0.000000    34.669355        |
 |             5         0.000000    0.000000    0.349066     4.103508        |
 |             6         0.000000    0.000000   -0.349066     4.103508        |
 +----------------------------------------------------------------------------+
 |                           b_k Directions (Ang^-1)                          |
 |                           -----------------------                          |
 |            No.           x           y           z                         |
 |            ---        --------------------------------                     |
 |             1         0.000000    0.109094    0.000000                     |
 |             2         0.120091    0.000000    0.000000                     |
 |             3         0.000000    0.000000    0.349066                     |
 +----------------------------------------------------------------------------+
  
 *============================================================================*
 |                              MEMORY ESTIMATE                               |
 |         Maximum RAM allocated during each phase of the calculation         |
 *============================================================================*
 |                            Wannierise:           10.07 Mb                  |
 *----------------------------------------------------------------------------*
  
 Starting a new Wannier90 calculation ...

 Time to get kmesh              0.024 (sec)

 Reading overlaps from wannier90.mmn    : File generated by VASP: Te-2d

 Reading projections from wannier90.amn : File generated by VASP: Te-2d

 Time to read overlaps          0.172 (sec)

 Writing checkpoint file wannier90.chk... done

 
 *------------------------------- WANNIERISE ---------------------------------*
 +--------------------------------------------------------------------+<-- CONV
 | Iter  Delta Spread     RMS Gradient      Spread (Ang^2)      Time  |<-- CONV
 +--------------------------------------------------------------------+<-- CONV
 
 ------------------------------------------------------------------------------
 Initial State
  WF centre and spread    1  (  1.132170,  5.552476,  9.588038 )     2.59794424
  WF centre and spread    2  (  1.093822,  5.553243,  9.587647 )     3.29652082
  WF centre and spread    3  (  1.137193,  5.552930,  9.588186 )     3.26328715
  WF centre and spread    4  (  2.899185,  3.622748, 10.712856 )     2.78459324
  WF centre and spread    5  (  2.922916,  3.546751, 10.589856 )     2.81657425
  WF centre and spread    6  (  2.909681,  3.548665, 10.617258 )     3.06740992
  WF centre and spread    7  (  2.888988,  1.729620,  8.457149 )     2.78488334
  WF centre and spread    8  (  2.912350,  1.804439,  8.580462 )     2.81350568
  WF centre and spread    9  (  2.899718,  1.804337,  8.552698 )     3.06941828
  WF centre and spread   10  (  1.132171,  5.552476,  9.588037 )     2.59795520
  WF centre and spread   11  (  1.093825,  5.553243,  9.587648 )     3.29656383
  WF centre and spread   12  (  1.137196,  5.552930,  9.588186 )     3.26332422
  WF centre and spread   13  (  2.899186,  3.622747, 10.712864 )     2.78463503
  WF centre and spread   14  (  2.922917,  3.546752, 10.589857 )     2.81659375
  WF centre and spread   15  (  2.909680,  3.548660, 10.617256 )     3.06746376
  WF centre and spread   16  (  2.888989,  1.729621,  8.457144 )     2.78491894
  WF centre and spread   17  (  2.912350,  1.804439,  8.580461 )     2.81352490
  WF centre and spread   18  (  2.899718,  1.804343,  8.552702 )     3.06948360
  Sum of centres and spreads ( 41.592057, 65.430419,172.548303 )    52.98860012
 
      0     0.530E+02     0.0000000000       52.9886001255       0.21  <-- CONV
        O_D=      0.1075750 O_OD=      2.2374202 O_TOT=     52.9886001 <-- SPRD
 ------------------------------------------------------------------------------
 Cycle:      1
  WF centre and spread    1  (  1.132771,  5.552465, -8.411954 )     2.58603147
  WF centre and spread    2  (  1.094602,  5.553250, -8.412341 )     3.20644417
  WF centre and spread    3  (  1.135210,  5.552914, -8.411827 )     3.18297894
  WF centre and spread    4  (  2.898825,  3.622899, -7.284333 )     2.74866929
  WF centre and spread    5  (  2.923099,  3.547978, -7.410395 )     2.78477549
  WF centre and spread    6  (  2.910039,  3.548950, -7.382163 )     3.02764602
  WF centre and spread    7  (  2.888688,  1.729502,  8.454354 )     2.74899257
  WF centre and spread    8  (  2.912578,  1.803206,  8.580699 )     2.78190490
  WF centre and spread    9  (  2.900037,  1.804050,  8.552113 )     3.02955761
  WF centre and spread   10  (  1.132772,  5.552465, -8.411954 )     2.58604207
  WF centre and spread   11  (  1.094604,  5.553249, -8.412340 )     3.20648494
  WF centre and spread   12  (  1.135213,  5.552913, -8.411826 )     3.18301370
  WF centre and spread   13  (  2.898826,  3.622899, -7.284325 )     2.74871004
  WF centre and spread   14  (  2.923101,  3.547979, -7.410394 )     2.78479414
  WF centre and spread   15  (  2.910039,  3.548946, -7.382164 )     3.02769906
  WF centre and spread   16  (  2.888689,  1.729504,  8.454348 )     2.74902739
  WF centre and spread   17  (  2.912578,  1.803206,  8.580699 )     2.78192360
  WF centre and spread   18  (  2.900037,  1.804056,  8.552117 )     3.02962194
  Sum of centres and spreads ( 41.591709, 65.430430,-43.451686 )    52.19431733
 
      1    -0.794E+00     1.2222647000       52.1943173289       0.24  <-- CONV
        O_D=      0.0693500 O_OD=      1.4813624 O_TOT=     52.1943173 <-- SPRD
 Delta: O_D= -0.3822500E-01 O_OD= -0.7560578E+00 O_TOT= -0.7942828E+00 <-- DLTA
 ------------------------------------------------------------------------------
 Cycle:      2
  WF centre and spread    1  (  1.133051,  5.552457, -8.411951 )     2.58556034
  WF centre and spread    2  (  1.095161,  5.553250, -8.412334 )     3.17692282
  WF centre and spread    3  (  1.134998,  5.552905, -8.411830 )     3.15971703
  WF centre and spread    4  (  2.898526,  3.622623, -7.283116 )     2.74172697
  WF centre and spread    5  (  2.922949,  3.548396, -7.410746 )     2.77769541
  WF centre and spread    6  (  2.910195,  3.549435, -7.381911 )     3.01765645
  WF centre and spread    7  (  2.888417,  1.729794,  8.453145 )     2.74210541
  WF centre and spread    8  (  2.912444,  1.802788,  8.581045 )     2.77477640
  WF centre and spread    9  (  2.900178,  1.803566,  8.551854 )     3.01952303
  WF centre and spread   10  (  1.133052,  5.552458, -8.411951 )     2.58557093
  WF centre and spread   11  (  1.095163,  5.553250, -8.412333 )     3.17696257
  WF centre and spread   12  (  1.135001,  5.552904, -8.411830 )     3.15975078
  WF centre and spread   13  (  2.898526,  3.622622, -7.283107 )     2.74176788
  WF centre and spread   14  (  2.922951,  3.548396, -7.410746 )     2.77771320
  WF centre and spread   15  (  2.910194,  3.549430, -7.381912 )     3.01770909
  WF centre and spread   16  (  2.888418,  1.729796,  8.453140 )     2.74214018
  WF centre and spread   17  (  2.912444,  1.802788,  8.581045 )     2.77479442
  WF centre and spread   18  (  2.900178,  1.803572,  8.551858 )     3.01958694
  Sum of centres and spreads ( 41.591846, 65.430430,-43.451677 )    51.99167987
 
      2    -0.203E+00     0.8216668507       51.9916798741       0.28  <-- CONV
        O_D=      0.0540625 O_OD=      1.2940124 O_TOT=     51.9916799 <-- SPRD
 Delta: O_D= -0.1528747E-01 O_OD= -0.1873500E+00 O_TOT= -0.2026375E+00 <-- DLTA
 ------------------------------------------------------------------------------
 Cycle:      3
  WF centre and spread    1  (  1.133214,  5.552453, -8.411949 )     2.58615049
  WF centre and spread    2  (  1.095604,  5.553253, -8.412329 )     3.15977009
  WF centre and spread    3  (  1.135058,  5.552900, -8.411831 )     3.14728832
  WF centre and spread    4  (  2.898312,  3.622371, -7.282416 )     2.74021304
  WF centre and spread    5  (  2.922789,  3.548517, -7.411008 )     2.77470617
  WF centre and spread    6  (  2.910267,  3.549773, -7.381729 )     3.01302144
  WF centre and spread    7  (  2.888220,  1.730055,  8.452454 )     2.74062570
  WF centre and spread    8  (  2.912290,  1.802666,  8.581303 )     2.77175822
  WF centre and spread    9  (  2.900242,  1.803226,  8.551666 )     3.01483991
  WF centre and spread   10  (  1.133215,  5.552453, -8.411949 )     2.58616088
  WF centre and spread   11  (  1.095606,  5.553252, -8.412328 )     3.15980940
  WF centre and spread   12  (  1.135061,  5.552899, -8.411830 )     3.14732149
  WF centre and spread   13  (  2.898313,  3.622370, -7.282408 )     2.74025386
  WF centre and spread   14  (  2.922790,  3.548518, -7.411007 )     2.77472344
  WF centre and spread   15  (  2.910266,  3.549768, -7.381730 )     3.01307375
  WF centre and spread   16  (  2.888221,  1.730057,  8.452448 )     2.74066026
  WF centre and spread   17  (  2.912291,  1.802666,  8.581303 )     2.77177567
  WF centre and spread   18  (  2.900242,  1.803233,  8.551670 )     3.01490354
  Sum of centres and spreads ( 41.592000, 65.430430,-43.451668 )    51.89705568
 
      3    -0.946E-01     0.6891074060       51.8970556817       0.31  <-- CONV
        O_D=      0.0487912 O_OD=      1.2046595 O_TOT=     51.8970557 <-- SPRD
 Delta: O_D= -0.5271284E-02 O_OD= -0.8935291E-01 O_TOT= -0.9462419E-01 <-- DLTA
 ------------------------------------------------------------------------------
 Cycle:      4
  WF centre and spread    1  (  1.133332,  5.552449, -8.411947 )     2.58761374
  WF centre and spread    2  (  1.095963,  5.553257, -8.412325 )     3.14447439
  WF centre and spread    3  (  1.135158,  5.552897, -8.411831 )     3.13816147
  WF centre and spread    4  (  2.898149,  3.622096, -7.281918 )     2.74176058
  WF centre and spread    5  (  2.922636,  3.548530, -7.411233 )     2.77258127
  WF centre and spread    6  (  2.910321,  3.550115, -7.381595 )     3.00871069
  WF centre and spread    7  (  2.888070,  1.730338,  8.451964 )     2.74218242
  WF centre and spread    8  (  2.912139,  1.802652,  8.581525 )     2.76961933
  WF centre and spread    9  (  2.900291,  1.802880,  8.551527 )     3.01047418
  WF centre and spread   10  (  1.133333,  5.552450, -8.411948 )     2.58762401
  WF centre and spread   11  (  1.095965,  5.553256, -8.412324 )     3.14451339
  WF centre and spread   12  (  1.135161,  5.552896, -8.411831 )     3.13819389
  WF centre and spread   13  (  2.898149,  3.622095, -7.281909 )     2.74180166
  WF centre and spread   14  (  2.922637,  3.548530, -7.411232 )     2.77259845
  WF centre and spread   15  (  2.910321,  3.550111, -7.381596 )     3.00876267
  WF centre and spread   16  (  2.888071,  1.730340,  8.451958 )     2.74221701
  WF centre and spread   17  (  2.912140,  1.802652,  8.581525 )     2.76963671
  WF centre and spread   18  (  2.900291,  1.802886,  8.551531 )     3.01053738
  Sum of centres and spreads ( 41.592125, 65.430430,-43.451658 )    51.83146326
 
      4    -0.656E-01     0.5856524168       51.8314632568       0.34  <-- CONV
        O_D=      0.0451422 O_OD=      1.1427161 O_TOT=     51.8314633 <-- SPRD
 Delta: O_D= -0.3649042E-02 O_OD= -0.6194338E-01 O_TOT= -0.6559242E-01 <-- DLTA
 ------------------------------------------------------------------------------
 Cycle:      5
  WF centre and spread    1  (  1.133390,  5.552447, -8.411946 )     2.58924294
  WF centre and spread    2  (  1.096169,  5.553262, -8.412322 )     3.13210557
  WF centre and spread    3  (  1.135215,  5.552896, -8.411831 )     3.13085963
  WF centre and spread    4  (  2.898057,  3.621862, -7.281639 )     2.74523782
  WF centre and spread    5  (  2.922506,  3.548466, -7.411382 )     2.77049375
  WF centre and spread    6  (  2.910391,  3.550448, -7.381550 )     3.00518848
  WF centre and spread    7  (  2.887988,  1.730578,  8.451694 )     2.74564961
  WF centre and spread    8  (  2.912009,  1.802713,  8.581672 )     2.76752753
  WF centre and spread    9  (  2.900358,  1.802541,  8.551479 )     3.00689527
  WF centre and spread   10  (  1.133391,  5.552448, -8.411947 )     2.58925302
  WF centre and spread   11  (  1.096171,  5.553261, -8.412321 )     3.13214412
  WF centre and spread   12  (  1.135217,  5.552895, -8.411831 )     3.13089125
  WF centre and spread   13  (  2.898058,  3.621861, -7.281631 )     2.74527940
  WF centre and spread   14  (  2.922507,  3.548466, -7.411382 )     2.77051059
  WF centre and spread   15  (  2.910391,  3.550444, -7.381551 )     3.00524050
  WF centre and spread   16  (  2.887989,  1.730580,  8.451688 )     2.74568440
  WF centre and spread   17  (  2.912009,  1.802713,  8.581672 )     2.76754458
  WF centre and spread   18  (  2.900358,  1.802548,  8.551483 )     3.00695826
  Sum of centres and spreads ( 41.592173, 65.430429,-43.451647 )    51.78670672
 
      5    -0.448E-01     0.5017643518       51.7867067202       0.37  <-- CONV
        O_D=      0.0440388 O_OD=      1.0990629 O_TOT=     51.7867067 <-- SPRD
 Delta: O_D= -0.1103361E-02 O_OD= -0.4365318E-01 O_TOT= -0.4475654E-01 <-- DLTA
 ------------------------------------------------------------------------------
 Cycle:      6
  WF centre and spread    1  (  1.133399,  5.552446, -8.411946 )     2.59104541
  WF centre and spread    2  (  1.096247,  5.553267, -8.412320 )     3.12199784
  WF centre and spread    3  (  1.135236,  5.552897, -8.411831 )     3.12519841
  WF centre and spread    4  (  2.898025,  3.621685, -7.281530 )     2.74985658
  WF centre and spread    5  (  2.922384,  3.548376, -7.411465 )     2.76816564
  WF centre and spread    6  (  2.910484,  3.550762, -7.381595 )     3.00160935
  WF centre and spread    7  (  2.887963,  1.730759,  8.451592 )     2.75023790
  WF centre and spread    8  (  2.911885,  1.802800,  8.581751 )     2.76520434
  WF centre and spread    9  (  2.900449,  1.802221,  8.551521 )     3.00325700
  WF centre and spread   10  (  1.133400,  5.552446, -8.411946 )     2.59105552
  WF centre and spread   11  (  1.096249,  5.553266, -8.412319 )     3.12203578
  WF centre and spread   12  (  1.135239,  5.552896, -8.411831 )     3.12522972
  WF centre and spread   13  (  2.898026,  3.621685, -7.281521 )     2.74989840
  WF centre and spread   14  (  2.922385,  3.548376, -7.411464 )     2.76818222
  WF centre and spread   15  (  2.910484,  3.550758, -7.381596 )     3.00166138
  WF centre and spread   16  (  2.887964,  1.730761,  8.451586 )     2.75027282
  WF centre and spread   17  (  2.911885,  1.802800,  8.581751 )     2.76522103
  WF centre and spread   18  (  2.900449,  1.802228,  8.551525 )     3.00331973
  Sum of centres and spreads ( 41.592153, 65.430429,-43.451636 )    51.75344907
 
      6    -0.333E-01     0.4393664337       51.7534490746       0.40  <-- CONV
        O_D=      0.0430021 O_OD=      1.0668421 O_TOT=     51.7534491 <-- SPRD
 Delta: O_D= -0.1036764E-02 O_OD= -0.3222088E-01 O_TOT= -0.3325765E-01 <-- DLTA
 ------------------------------------------------------------------------------
 Cycle:      7
  WF centre and spread    1  (  1.133389,  5.552446, -8.411946 )     2.59094822
  WF centre and spread    2  (  1.096248,  5.553267, -8.412320 )     3.12065713
  WF centre and spread    3  (  1.135234,  5.552897, -8.411831 )     3.12416357
  WF centre and spread    4  (  2.898040,  3.621690, -7.281539 )     2.75005494
  WF centre and spread    5  (  2.922357,  3.548365, -7.411432 )     2.76713571
  WF centre and spread    6  (  2.910494,  3.550783, -7.381616 )     3.00057891
  WF centre and spread    7  (  2.887979,  1.730755,  8.451602 )     2.75042925
  WF centre and spread    8  (  2.911857,  1.802811,  8.581719 )     2.76418086
  WF centre and spread    9  (  2.900459,  1.802200,  8.551542 )     3.00221317
  WF centre and spread   10  (  1.133390,  5.552446, -8.411946 )     2.59095859
  WF centre and spread   11  (  1.096250,  5.553266, -8.412319 )     3.12069484
  WF centre and spread   12  (  1.135237,  5.552896, -8.411831 )     3.12419507
  WF centre and spread   13  (  2.898041,  3.621689, -7.281530 )     2.75009666
  WF centre and spread   14  (  2.922358,  3.548365, -7.411431 )     2.76715203
  WF centre and spread   15  (  2.910494,  3.550778, -7.381617 )     3.00063067
  WF centre and spread   16  (  2.887980,  1.730757,  8.451596 )     2.75046415
  WF centre and spread   17  (  2.911858,  1.802811,  8.581719 )     2.76419720
  WF centre and spread   18  (  2.900460,  1.802207,  8.551546 )     3.00227566
  Sum of centres and spreads ( 41.592126, 65.430429,-43.451635 )    51.74102664
 
      7    -0.124E-01     0.3640365946       51.7410266395       0.43  <-- CONV
        O_D=      0.0417259 O_OD=      1.0556958 O_TOT=     51.7410266 <-- SPRD
 Delta: O_D= -0.1276185E-02 O_OD= -0.1114625E-01 O_TOT= -0.1242244E-01 <-- DLTA
 ------------------------------------------------------------------------------
 Cycle:      8
  WF centre and spread    1  (  1.133364,  5.552446, -8.411946 )     2.59131718
  WF centre and spread    2  (  1.096255,  5.553267, -8.412319 )     3.11818196
  WF centre and spread    3  (  1.135246,  5.552897, -8.411831 )     3.12281180
  WF centre and spread    4  (  2.898077,  3.621693, -7.281575 )     2.75156712
  WF centre and spread    5  (  2.922293,  3.548354, -7.411356 )     2.76637959
  WF centre and spread    6  (  2.910508,  3.550849, -7.381677 )     2.99913855
  WF centre and spread    7  (  2.888016,  1.730753,  8.451639 )     2.75191805
  WF centre and spread    8  (  2.911793,  1.802823,  8.581642 )     2.76342561
  WF centre and spread    9  (  2.900475,  1.802132,  8.551604 )     3.00074077
  WF centre and spread   10  (  1.133365,  5.552446, -8.411946 )     2.59132786
  WF centre and spread   11  (  1.096257,  5.553267, -8.412319 )     3.11821942
  WF centre and spread   12  (  1.135249,  5.552897, -8.411830 )     3.12284349
  WF centre and spread   13  (  2.898078,  3.621692, -7.281566 )     2.75160887
  WF centre and spread   14  (  2.922294,  3.548354, -7.411355 )     2.76639591
  WF centre and spread   15  (  2.910508,  3.550845, -7.381678 )     2.99919011
  WF centre and spread   16  (  2.888017,  1.730754,  8.451634 )     2.75195301
  WF centre and spread   17  (  2.911793,  1.802822,  8.581642 )     2.76344188
  WF centre and spread   18  (  2.900475,  1.802138,  8.551607 )     3.00080302
  Sum of centres and spreads ( 41.592062, 65.430429,-43.451631 )    51.73126421
 
      8    -0.976E-02     0.2340573129       51.7312642124       0.46  <-- CONV
        O_D=      0.0415141 O_OD=      1.0461452 O_TOT=     51.7312642 <-- SPRD
 Delta: O_D= -0.2118186E-03 O_OD= -0.9550609E-02 O_TOT= -0.9762427E-02 <-- DLTA
 ------------------------------------------------------------------------------
 Cycle:      9
  WF centre and spread    1  (  1.133331,  5.552445, -8.411946 )     2.59203236
  WF centre and spread    2  (  1.096275,  5.553268, -8.412319 )     3.11444663
  WF centre and spread    3  (  1.135289,  5.552898, -8.411830 )     3.12051734
  WF centre and spread    4  (  2.898132,  3.621705, -7.281663 )     2.75457487
  WF centre and spread    5  (  2.922185,  3.548342, -7.411242 )     2.76561876
  WF centre and spread    6  (  2.910522,  3.550973, -7.381787 )     2.99721545
  WF centre and spread    7  (  2.888072,  1.730742,  8.451729 )     2.75488952
  WF centre and spread    8  (  2.911684,  1.802834,  8.581528 )     2.76266419
  WF centre and spread    9  (  2.900491,  1.802005,  8.551714 )     2.99876996
  WF centre and spread   10  (  1.133332,  5.552446, -8.411946 )     2.59204313
  WF centre and spread   11  (  1.096277,  5.553268, -8.412319 )     3.11448386
  WF centre and spread   12  (  1.135292,  5.552897, -8.411830 )     3.12054907
  WF centre and spread   13  (  2.898133,  3.621704, -7.281654 )     2.75461678
  WF centre and spread   14  (  2.922186,  3.548343, -7.411241 )     2.76563509
  WF centre and spread   15  (  2.910522,  3.550968, -7.381788 )     2.99726685
  WF centre and spread   16  (  2.888073,  1.730744,  8.451724 )     2.75492457
  WF centre and spread   17  (  2.911685,  1.802834,  8.581528 )     2.76268042
  WF centre and spread   18  (  2.900491,  1.802011,  8.551718 )     2.99883193
  Sum of centres and spreads ( 41.591975, 65.430430,-43.451624 )    51.72176077
 
      9    -0.950E-02     0.2146080343       51.7217607744       0.49  <-- CONV
        O_D=      0.0414015 O_OD=      1.0367543 O_TOT=     51.7217608 <-- SPRD
 Delta: O_D= -0.1125650E-03 O_OD= -0.9390873E-02 O_TOT= -0.9503438E-02 <-- DLTA
 ------------------------------------------------------------------------------
 Cycle:     10
  WF centre and spread    1  (  1.133298,  5.552445, -8.411946 )     2.59273417
  WF centre and spread    2  (  1.096303,  5.553269, -8.412319 )     3.10998892
  WF centre and spread    3  (  1.135362,  5.552898, -8.411830 )     3.11743994
  WF centre and spread    4  (  2.898191,  3.621729, -7.281815 )     2.75890662
  WF centre and spread    5  (  2.922057,  3.548331, -7.411122 )     2.76480508
  WF centre and spread    6  (  2.910539,  3.551117, -7.381929 )     2.99497353
  WF centre and spread    7  (  2.888132,  1.730720,  8.451884 )     2.75917879
  WF centre and spread    8  (  2.911556,  1.802846,  8.581408 )     2.76184600
  WF centre and spread    9  (  2.900510,  1.801858,  8.551857 )     2.99647146
  WF centre and spread   10  (  1.133299,  5.552445, -8.411946 )     2.59274505
  WF centre and spread   11  (  1.096305,  5.553269, -8.412318 )     3.11002594
  WF centre and spread   12  (  1.135365,  5.552898, -8.411829 )     3.11747153
  WF centre and spread   13  (  2.898192,  3.621729, -7.281807 )     2.75894881
  WF centre and spread   14  (  2.922059,  3.548331, -7.411121 )     2.76482144
  WF centre and spread   15  (  2.910538,  3.551112, -7.381931 )     2.99502462
  WF centre and spread   16  (  2.888133,  1.730722,  8.451879 )     2.75921398
  WF centre and spread   17  (  2.911556,  1.802846,  8.581408 )     2.76186225
  WF centre and spread   18  (  2.900511,  1.801864,  8.551861 )     2.99653298
  Sum of centres and spreads ( 41.591907, 65.430430,-43.451616 )    51.71299109
 
     10    -0.877E-02     0.2134297373       51.7129910955       0.53  <-- CONV
        O_D=      0.0411098 O_OD=      1.0282763 O_TOT=     51.7129911 <-- SPRD
 Delta: O_D= -0.2916665E-03 O_OD= -0.8478012E-02 O_TOT= -0.8769679E-02 <-- DLTA
 ------------------------------------------------------------------------------
 Cycle:     11
  WF centre and spread    1  (  1.133274,  5.552445, -8.411946 )     2.59318635
  WF centre and spread    2  (  1.096321,  5.553270, -8.412318 )     3.10616798
  WF centre and spread    3  (  1.135429,  5.552898, -8.411829 )     3.11418114
  WF centre and spread    4  (  2.898233,  3.621766, -7.281986 )     2.76321651
  WF centre and spread    5  (  2.921962,  3.548327, -7.411041 )     2.76423458
  WF centre and spread    6  (  2.910558,  3.551232, -7.382059 )     2.99303677
  WF centre and spread    7  (  2.888175,  1.730686,  8.452057 )     2.76345523
  WF centre and spread    8  (  2.911459,  1.802850,  8.581328 )     2.76126866
  WF centre and spread    9  (  2.900532,  1.801741,  8.551988 )     2.99448836
  WF centre and spread   10  (  1.133275,  5.552445, -8.411947 )     2.59319714
  WF centre and spread   11  (  1.096323,  5.553269, -8.412318 )     3.10620488
  WF centre and spread   12  (  1.135432,  5.552898, -8.411829 )     3.11421258
  WF centre and spread   13  (  2.898234,  3.621765, -7.281978 )     2.76325893
  WF centre and spread   14  (  2.921963,  3.548327, -7.411040 )     2.76425092
  WF centre and spread   15  (  2.910557,  3.551227, -7.382061 )     2.99308772
  WF centre and spread   16  (  2.888176,  1.730688,  8.452051 )     2.76349049
  WF centre and spread   17  (  2.911460,  1.802850,  8.581328 )     2.76128491
  WF centre and spread   18  (  2.900532,  1.801747,  8.551992 )     2.99454954
  Sum of centres and spreads ( 41.591895, 65.430431,-43.451609 )    51.70677270
 
     11    -0.622E-02     0.1876930858       51.7067726964       0.56  <-- CONV
        O_D=      0.0411534 O_OD=      1.0220144 O_TOT=     51.7067727 <-- SPRD
 Delta: O_D=  0.4353153E-04 O_OD= -0.6261931E-02 O_TOT= -0.6218399E-02 <-- DLTA
 ------------------------------------------------------------------------------
 Cycle:     12
  WF centre and spread    1  (  1.133257,  5.552444, -8.411947 )     2.59353699
  WF centre and spread    2  (  1.096323,  5.553270, -8.412318 )     3.10294476
  WF centre and spread    3  (  1.135480,  5.552898, -8.411829 )     3.11109407
  WF centre and spread    4  (  2.898262,  3.621809, -7.282159 )     2.76725977
  WF centre and spread    5  (  2.921897,  3.548336, -7.410997 )     2.76381837
  WF centre and spread    6  (  2.910580,  3.551323, -7.382179 )     2.99128312
  WF centre and spread    7  (  2.888204,  1.730644,  8.452230 )     2.76747267
  WF centre and spread    8  (  2.911393,  1.802840,  8.581285 )     2.76084272
  WF centre and spread    9  (  2.900557,  1.801649,  8.552108 )     2.99269963
  WF centre and spread   10  (  1.133258,  5.552445, -8.411947 )     2.59354842
  WF centre and spread   11  (  1.096325,  5.553270, -8.412317 )     3.10298137
  WF centre and spread   12  (  1.135483,  5.552898, -8.411828 )     3.11112540
  WF centre and spread   13  (  2.898262,  3.621808, -7.282150 )     2.76730268
  WF centre and spread   14  (  2.921898,  3.548337, -7.410996 )     2.76383462
  WF centre and spread   15  (  2.910580,  3.551318, -7.382181 )     2.99133374
  WF centre and spread   16  (  2.888205,  1.730646,  8.452224 )     2.76750832
  WF centre and spread   17  (  2.911394,  1.802840,  8.581285 )     2.76085880
  WF centre and spread   18  (  2.900557,  1.801655,  8.552112 )     2.99276059
  Sum of centres and spreads ( 41.591918, 65.430432,-43.451603 )    51.70220605
 
     12    -0.457E-02     0.1769191959       51.7022060499       0.58  <-- CONV
        O_D=      0.0411421 O_OD=      1.0174590 O_TOT=     51.7022060 <-- SPRD
 Delta: O_D= -0.1130794E-04 O_OD= -0.4555339E-02 O_TOT= -0.4566647E-02 <-- DLTA
 ------------------------------------------------------------------------------
 Cycle:     13
  WF centre and spread    1  (  1.133258,  5.552444, -8.411947 )     2.59354598
  WF centre and spread    2  (  1.096314,  5.553270, -8.412317 )     3.10254201
  WF centre and spread    3  (  1.135468,  5.552898, -8.411829 )     3.11048987
  WF centre and spread    4  (  2.898262,  3.621822, -7.282173 )     2.76767383
  WF centre and spread    5  (  2.921902,  3.548351, -7.411013 )     2.76373637
  WF centre and spread    6  (  2.910589,  3.551332, -7.382192 )     2.99088185
  WF centre and spread    7  (  2.888205,  1.730632,  8.452244 )     2.76788738
  WF centre and spread    8  (  2.911399,  1.802826,  8.581301 )     2.76075833
  WF centre and spread    9  (  2.900566,  1.801640,  8.552121 )     2.99229732
  WF centre and spread   10  (  1.133259,  5.552445, -8.411947 )     2.59355725
  WF centre and spread   11  (  1.096316,  5.553270, -8.412317 )     3.10257862
  WF centre and spread   12  (  1.135471,  5.552898, -8.411828 )     3.11052122
  WF centre and spread   13  (  2.898263,  3.621821, -7.282164 )     2.76771670
  WF centre and spread   14  (  2.921903,  3.548351, -7.411013 )     2.76375257
  WF centre and spread   15  (  2.910589,  3.551328, -7.382193 )     2.99093253
  WF centre and spread   16  (  2.888206,  1.730634,  8.452238 )     2.76792298
  WF centre and spread   17  (  2.911399,  1.802826,  8.581301 )     2.76077440
  WF centre and spread   18  (  2.900566,  1.801646,  8.552125 )     2.99235824
  Sum of centres and spreads ( 41.591936, 65.430431,-43.451602 )    51.69992744
 
     13    -0.228E-02     0.1399954622       51.6999274367       0.61  <-- CONV
        O_D=      0.0409202 O_OD=      1.0154023 O_TOT=     51.6999274 <-- SPRD
 Delta: O_D= -0.2218792E-03 O_OD= -0.2056734E-02 O_TOT= -0.2278613E-02 <-- DLTA
 ------------------------------------------------------------------------------
 Cycle:     14
  WF centre and spread    1  (  1.133261,  5.552444, -8.411947 )     2.59364613
  WF centre and spread    2  (  1.096298,  5.553270, -8.412317 )     3.10189321
  WF centre and spread    3  (  1.135450,  5.552898, -8.411829 )     3.10945761
  WF centre and spread    4  (  2.898263,  3.621847, -7.282205 )     2.76862041
  WF centre and spread    5  (  2.921911,  3.548382, -7.411046 )     2.76378194
  WF centre and spread    6  (  2.910604,  3.551355, -7.382222 )     2.99023408
  WF centre and spread    7  (  2.888206,  1.730607,  8.452276 )     2.76883438
  WF centre and spread    8  (  2.911408,  1.802794,  8.581334 )     2.76079769
  WF centre and spread    9  (  2.900581,  1.801617,  8.552152 )     2.99164660
  WF centre and spread   10  (  1.133262,  5.552444, -8.411947 )     2.59365760
  WF centre and spread   11  (  1.096300,  5.553270, -8.412317 )     3.10192973
  WF centre and spread   12  (  1.135452,  5.552898, -8.411828 )     3.10948890
  WF centre and spread   13  (  2.898264,  3.621846, -7.282196 )     2.76866343
  WF centre and spread   14  (  2.921912,  3.548382, -7.411045 )     2.76379814
  WF centre and spread   15  (  2.910603,  3.551351, -7.382224 )     2.99028466
  WF centre and spread   16  (  2.888207,  1.730609,  8.452270 )     2.76887012
  WF centre and spread   17  (  2.911408,  1.802794,  8.581334 )     2.76081372
  WF centre and spread   18  (  2.900581,  1.801623,  8.552155 )     2.99170749
  Sum of centres and spreads ( 41.591970, 65.430431,-43.451601 )    51.69812582
 
     14    -0.180E-02     0.1071118326       51.6981258240       0.64  <-- CONV
        O_D=      0.0408527 O_OD=      1.0136682 O_TOT=     51.6981258 <-- SPRD
 Delta: O_D= -0.6750125E-04 O_OD= -0.1734112E-02 O_TOT= -0.1801613E-02 <-- DLTA
 ------------------------------------------------------------------------------
 Cycle:     15
  WF centre and spread    1  (  1.133266,  5.552444, -8.411947 )     2.59386887
  WF centre and spread    2  (  1.096280,  5.553270, -8.412317 )     3.10092860
  WF centre and spread    3  (  1.135430,  5.552898, -8.411829 )     3.10784385
  WF centre and spread    4  (  2.898262,  3.621894, -7.282266 )     2.77025005
  WF centre and spread    5  (  2.921918,  3.548433, -7.411097 )     2.76390973
  WF centre and spread    6  (  2.910625,  3.551398, -7.382284 )     2.98921845
  WF centre and spread    7  (  2.888206,  1.730562,  8.452338 )     2.77046285
  WF centre and spread    8  (  2.911415,  1.802742,  8.581386 )     2.76091783
  WF centre and spread    9  (  2.900603,  1.801574,  8.552214 )     2.99062379
  WF centre and spread   10  (  1.133268,  5.552444, -8.411947 )     2.59388047
  WF centre and spread   11  (  1.096282,  5.553270, -8.412316 )     3.10096505
  WF centre and spread   12  (  1.135433,  5.552898, -8.411829 )     3.10787505
  WF centre and spread   13  (  2.898263,  3.621893, -7.282258 )     2.77029327
  WF centre and spread   14  (  2.921920,  3.548433, -7.411097 )     2.76392592
  WF centre and spread   15  (  2.910625,  3.551393, -7.382285 )     2.98926892
  WF centre and spread   16  (  2.888207,  1.730563,  8.452333 )     2.77049871
  WF centre and spread   17  (  2.911416,  1.802742,  8.581386 )     2.76093382
  WF centre and spread   18  (  2.900603,  1.801580,  8.552218 )     2.99068461
  Sum of centres and spreads ( 41.592022, 65.430431,-43.451599 )    51.69634984
 
     15    -0.178E-02     0.0937527703       51.6963498365       0.66  <-- CONV
        O_D=      0.0408014 O_OD=      1.0119435 O_TOT=     51.6963498 <-- SPRD
 Delta: O_D= -0.5132823E-04 O_OD= -0.1724659E-02 O_TOT= -0.1775987E-02 <-- DLTA
 ------------------------------------------------------------------------------
 Cycle:     16
  WF centre and spread    1  (  1.133273,  5.552443, -8.411947 )     2.59412258
  WF centre and spread    2  (  1.096269,  5.553270, -8.412316 )     3.09997204
  WF centre and spread    3  (  1.135422,  5.552898, -8.411829 )     3.10634459
  WF centre and spread    4  (  2.898261,  3.621948, -7.282340 )     2.77197814
  WF centre and spread    5  (  2.921916,  3.548478, -7.411142 )     2.76400642
  WF centre and spread    6  (  2.910646,  3.551439, -7.382359 )     2.98817059
  WF centre and spread    7  (  2.888205,  1.730509,  8.452412 )     2.77218679
  WF centre and spread    8  (  2.911413,  1.802696,  8.581431 )     2.76100867
  WF centre and spread    9  (  2.900624,  1.801532,  8.552290 )     2.98956480
  WF centre and spread   10  (  1.133274,  5.552444, -8.411948 )     2.59413429
  WF centre and spread   11  (  1.096271,  5.553269, -8.412316 )     3.10000845
  WF centre and spread   12  (  1.135425,  5.552898, -8.411829 )     3.10637567
  WF centre and spread   13  (  2.898261,  3.621947, -7.282331 )     2.77202156
  WF centre and spread   14  (  2.921917,  3.548478, -7.411142 )     2.76402260
  WF centre and spread   15  (  2.910645,  3.551435, -7.382361 )     2.98822093
  WF centre and spread   16  (  2.888206,  1.730511,  8.452407 )     2.77222277
  WF centre and spread   17  (  2.911413,  1.802696,  8.581431 )     2.76102464
  WF centre and spread   18  (  2.900624,  1.801538,  8.552294 )     2.98962550
  Sum of centres and spreads ( 41.592065, 65.430431,-43.451596 )    51.69501103
 
     16    -0.134E-02     0.0887901114       51.6950110303       0.69  <-- CONV
        O_D=      0.0407248 O_OD=      1.0106813 O_TOT=     51.6950110 <-- SPRD
 Delta: O_D= -0.7653167E-04 O_OD= -0.1262275E-02 O_TOT= -0.1338806E-02 <-- DLTA
 ------------------------------------------------------------------------------
 Cycle:     17
  WF centre and spread    1  (  1.133277,  5.552443, -8.411948 )     2.59434977
  WF centre and spread    2  (  1.096263,  5.553270, -8.412316 )     3.09922349
  WF centre and spread    3  (  1.135425,  5.552899, -8.411830 )     3.10529843
  WF centre and spread    4  (  2.898259,  3.621997, -7.282406 )     2.77336233
  WF centre and spread    5  (  2.921906,  3.548501, -7.411166 )     2.76404236
  WF centre and spread    6  (  2.910662,  3.551468, -7.382429 )     2.98734343
  WF centre and spread    7  (  2.888204,  1.730461,  8.452479 )     2.77356497
  WF centre and spread    8  (  2.911403,  1.802673,  8.581455 )     2.76104165
  WF centre and spread    9  (  2.900641,  1.801504,  8.552361 )     2.98872593
  WF centre and spread   10  (  1.133279,  5.552443, -8.411948 )     2.59436154
  WF centre and spread   11  (  1.096265,  5.553269, -8.412316 )     3.09925984
  WF centre and spread   12  (  1.135428,  5.552898, -8.411829 )     3.10532942
  WF centre and spread   13  (  2.898260,  3.621996, -7.282397 )     2.77340590
  WF centre and spread   14  (  2.921907,  3.548501, -7.411165 )     2.76405854
  WF centre and spread   15  (  2.910662,  3.551463, -7.382431 )     2.98739368
  WF centre and spread   16  (  2.888205,  1.730463,  8.452473 )     2.77360105
  WF centre and spread   17  (  2.911403,  1.802673,  8.581455 )     2.76105760
  WF centre and spread   18  (  2.900641,  1.801510,  8.552365 )     2.98878655
  Sum of centres and spreads ( 41.592089, 65.430432,-43.451594 )    51.69420646
 
     17    -0.805E-03     0.0721907276       51.6942064610       0.72  <-- CONV
        O_D=      0.0407293 O_OD=      1.0098722 O_TOT=     51.6942065 <-- SPRD
 Delta: O_D=  0.4517564E-05 O_OD= -0.8090868E-03 O_TOT= -0.8045693E-03 <-- DLTA
 ------------------------------------------------------------------------------
 Cycle:     18
  WF centre and spread    1  (  1.133280,  5.552443, -8.411948 )     2.59459665
  WF centre and spread    2  (  1.096259,  5.553270, -8.412316 )     3.09848280
  WF centre and spread    3  (  1.135435,  5.552899, -8.411830 )     3.10444651
  WF centre and spread    4  (  2.898258,  3.622052, -7.282476 )     2.77475518
  WF centre and spread    5  (  2.921889,  3.548507, -7.411175 )     2.76400468
  WF centre and spread    6  (  2.910679,  3.551487, -7.382508 )     2.98652039
  WF centre and spread    7  (  2.888203,  1.730406,  8.452550 )     2.77494895
  WF centre and spread    8  (  2.911386,  1.802667,  8.581464 )     2.76100258
  WF centre and spread    9  (  2.900660,  1.801484,  8.552441 )     2.98788851
  WF centre and spread   10  (  1.133281,  5.552443, -8.411948 )     2.59460847
  WF centre and spread   11  (  1.096261,  5.553270, -8.412316 )     3.09851909
  WF centre and spread   12  (  1.135438,  5.552898, -8.411829 )     3.10447745
  WF centre and spread   13  (  2.898258,  3.622052, -7.282467 )     2.77479889
  WF centre and spread   14  (  2.921890,  3.548507, -7.411175 )     2.76402086
  WF centre and spread   15  (  2.910679,  3.551482, -7.382509 )     2.98657057
  WF centre and spread   16  (  2.888204,  1.730408,  8.452544 )     2.77498512
  WF centre and spread   17  (  2.911386,  1.802667,  8.581464 )     2.76101852
  WF centre and spread   18  (  2.900660,  1.801491,  8.552444 )     2.98794905
  Sum of centres and spreads ( 41.592104, 65.430432,-43.451591 )    51.69359425
 
     18    -0.612E-03     0.0582106497       51.6935942527       0.74  <-- CONV
        O_D=      0.0407515 O_OD=      1.0092378 O_TOT=     51.6935943 <-- SPRD
 Delta: O_D=  0.2214659E-04 O_OD= -0.6343550E-03 O_TOT= -0.6122084E-03 <-- DLTA
 ------------------------------------------------------------------------------
 Cycle:     19
  WF centre and spread    1  (  1.133279,  5.552443, -8.411948 )     2.59461396
  WF centre and spread    2  (  1.096258,  5.553270, -8.412316 )     3.09839671
  WF centre and spread    3  (  1.135438,  5.552899, -8.411830 )     3.10441358
  WF centre and spread    4  (  2.898258,  3.622062, -7.282483 )     2.77488193
  WF centre and spread    5  (  2.921885,  3.548500, -7.411170 )     2.76393276
  WF centre and spread    6  (  2.910682,  3.551484, -7.382518 )     2.98641529
  WF centre and spread    7  (  2.888203,  1.730397,  8.452557 )     2.77507404
  WF centre and spread    8  (  2.911381,  1.802674,  8.581458 )     2.76093131
  WF centre and spread    9  (  2.900663,  1.801487,  8.552450 )     2.98778090
  WF centre and spread   10  (  1.133280,  5.552443, -8.411948 )     2.59462578
  WF centre and spread   11  (  1.096260,  5.553270, -8.412316 )     3.09843299
  WF centre and spread   12  (  1.135441,  5.552898, -8.411829 )     3.10444452
  WF centre and spread   13  (  2.898259,  3.622061, -7.282475 )     2.77492566
  WF centre and spread   14  (  2.921886,  3.548500, -7.411169 )     2.76394893
  WF centre and spread   15  (  2.910682,  3.551479, -7.382519 )     2.98646546
  WF centre and spread   16  (  2.888204,  1.730398,  8.452552 )     2.77511022
  WF centre and spread   17  (  2.911382,  1.802674,  8.581458 )     2.76094724
  WF centre and spread   18  (  2.900663,  1.801493,  8.552454 )     2.98784142
  Sum of centres and spreads ( 41.592102, 65.430432,-43.451591 )    51.69318268
 
     19    -0.412E-03     0.0652690550       51.6931826851       0.77  <-- CONV
        O_D=      0.0407148 O_OD=      1.0088630 O_TOT=     51.6931827 <-- SPRD
 Delta: O_D= -0.3668874E-04 O_OD= -0.3748788E-03 O_TOT= -0.4115675E-03 <-- DLTA
 ------------------------------------------------------------------------------
 Cycle:     20
  WF centre and spread    1  (  1.133277,  5.552443, -8.411948 )     2.59468676
  WF centre and spread    2  (  1.096256,  5.553270, -8.412316 )     3.09819631
  WF centre and spread    3  (  1.135448,  5.552899, -8.411830 )     3.10435533
  WF centre and spread    4  (  2.898258,  3.622089, -7.282504 )     2.77528502
  WF centre and spread    5  (  2.921873,  3.548482, -7.411155 )     2.76379931
  WF centre and spread    6  (  2.910689,  3.551477, -7.382546 )     2.98615359
  WF centre and spread    7  (  2.888203,  1.730369,  8.452578 )     2.77547223
  WF centre and spread    8  (  2.911370,  1.802691,  8.581443 )     2.76079921
  WF centre and spread    9  (  2.900670,  1.801494,  8.552478 )     2.98751231
  WF centre and spread   10  (  1.133278,  5.552443, -8.411948 )     2.59469859
  WF centre and spread   11  (  1.096258,  5.553270, -8.412316 )     3.09823258
  WF centre and spread   12  (  1.135450,  5.552898, -8.411829 )     3.10438628
  WF centre and spread   13  (  2.898259,  3.622088, -7.282495 )     2.77532878
  WF centre and spread   14  (  2.921875,  3.548482, -7.411154 )     2.76381548
  WF centre and spread   15  (  2.910689,  3.551473, -7.382547 )     2.98620375
  WF centre and spread   16  (  2.888204,  1.730371,  8.452573 )     2.77550845
  WF centre and spread   17  (  2.911370,  1.802691,  8.581443 )     2.76081515
  WF centre and spread   18  (  2.900670,  1.801500,  8.552482 )     2.98757280
  Sum of centres and spreads ( 41.592097, 65.430432,-43.451590 )    51.69282194
 
     20    -0.361E-03     0.0430867745       51.6928219404       0.80  <-- CONV
        O_D=      0.0407119 O_OD=      1.0085052 O_TOT=     51.6928219 <-- SPRD
 Delta: O_D= -0.2945840E-05 O_OD= -0.3577989E-03 O_TOT= -0.3607448E-03 <-- DLTA
 ------------------------------------------------------------------------------
 Cycle:     21
  WF centre and spread    1  (  1.133275,  5.552443, -8.411948 )     2.59481743
  WF centre and spread    2  (  1.096254,  5.553271, -8.412316 )     3.09787530
  WF centre and spread    3  (  1.135464,  5.552899, -8.411830 )     3.10420177
  WF centre and spread    4  (  2.898258,  3.622138, -7.282541 )     2.77601512
  WF centre and spread    5  (  2.921854,  3.548458, -7.411133 )     2.76360714
  WF centre and spread    6  (  2.910700,  3.551467, -7.382594 )     2.98569918
  WF centre and spread    7  (  2.888202,  1.730320,  8.452616 )     2.77619433
  WF centre and spread    8  (  2.911350,  1.802716,  8.581421 )     2.76060902
  WF centre and spread    9  (  2.900682,  1.801504,  8.552527 )     2.98704668
  WF centre and spread   10  (  1.133276,  5.552443, -8.411948 )     2.59482927
  WF centre and spread   11  (  1.096256,  5.553270, -8.412316 )     3.09791154
  WF centre and spread   12  (  1.135467,  5.552898, -8.411829 )     3.10423272
  WF centre and spread   13  (  2.898258,  3.622137, -7.282532 )     2.77605896
  WF centre and spread   14  (  2.921856,  3.548458, -7.411132 )     2.76362331
  WF centre and spread   15  (  2.910700,  3.551462, -7.382596 )     2.98574930
  WF centre and spread   16  (  2.888204,  1.730322,  8.452610 )     2.77623059
  WF centre and spread   17  (  2.911351,  1.802716,  8.581421 )     2.76062496
  WF centre and spread   18  (  2.900682,  1.801510,  8.552531 )     2.98710710
  Sum of centres and spreads ( 41.592089, 65.430432,-43.451588 )    51.69243372
 
     21    -0.388E-03     0.0440352433       51.6924337244       0.83  <-- CONV
        O_D=      0.0407161 O_OD=      1.0081127 O_TOT=     51.6924337 <-- SPRD
 Delta: O_D=  0.4259118E-05 O_OD= -0.3924750E-03 O_TOT= -0.3882159E-03 <-- DLTA
 ------------------------------------------------------------------------------
 Cycle:     22
  WF centre and spread    1  (  1.133273,  5.552443, -8.411948 )     2.59496353
  WF centre and spread    2  (  1.096253,  5.553271, -8.412316 )     3.09751038
  WF centre and spread    3  (  1.135483,  5.552899, -8.411830 )     3.10393694
  WF centre and spread    4  (  2.898255,  3.622196, -7.282584 )     2.77690568
  WF centre and spread    5  (  2.921835,  3.548439, -7.411113 )     2.76343290
  WF centre and spread    6  (  2.910713,  3.551454, -7.382650 )     2.98515100
  WF centre and spread    7  (  2.888199,  1.730262,  8.452659 )     2.77707638
  WF centre and spread    8  (  2.911330,  1.802735,  8.581401 )     2.76043627
  WF centre and spread    9  (  2.900696,  1.801517,  8.552584 )     2.98648634
  WF centre and spread   10  (  1.133274,  5.552443, -8.411948 )     2.59497539
  WF centre and spread   11  (  1.096255,  5.553270, -8.412316 )     3.09754659
  WF centre and spread   12  (  1.135486,  5.552898, -8.411829 )     3.10396786
  WF centre and spread   13  (  2.898256,  3.622195, -7.282575 )     2.77694962
  WF centre and spread   14  (  2.921836,  3.548439, -7.411113 )     2.76344908
  WF centre and spread   15  (  2.910712,  3.551449, -7.382652 )     2.98520106
  WF centre and spread   16  (  2.888200,  1.730264,  8.452654 )     2.77711270
  WF centre and spread   17  (  2.911330,  1.802735,  8.581402 )     2.76045221
  WF centre and spread   18  (  2.900696,  1.801523,  8.552588 )     2.98654667
  Sum of centres and spreads ( 41.592081, 65.430432,-43.451586 )    51.69210059
 
     22    -0.333E-03     0.0432108025       51.6921005887       0.86  <-- CONV
        O_D=      0.0407129 O_OD=      1.0077828 O_TOT=     51.6921006 <-- SPRD
 Delta: O_D= -0.3268029E-05 O_OD= -0.3298678E-03 O_TOT= -0.3331358E-03 <-- DLTA
 ------------------------------------------------------------------------------
 Cycle:     23
  WF centre and spread    1  (  1.133272,  5.552443, -8.411948 )     2.59508326
  WF centre and spread    2  (  1.096251,  5.553271, -8.412316 )     3.09719315
  WF centre and spread    3  (  1.135496,  5.552899, -8.411830 )     3.10359671
  WF centre and spread    4  (  2.898250,  3.622249, -7.282621 )     2.77771069
  WF centre and spread    5  (  2.921822,  3.548433, -7.411104 )     2.76334588
  WF centre and spread    6  (  2.910724,  3.551441, -7.382697 )     2.98465476
  WF centre and spread    7  (  2.888195,  1.730209,  8.452696 )     2.77787518
  WF centre and spread    8  (  2.911317,  1.802741,  8.581392 )     2.76034922
  WF centre and spread    9  (  2.900708,  1.801530,  8.552631 )     2.98598107
  WF centre and spread   10  (  1.133273,  5.552443, -8.411948 )     2.59509512
  WF centre and spread   11  (  1.096253,  5.553270, -8.412316 )     3.09722934
  WF centre and spread   12  (  1.135499,  5.552898, -8.411829 )     3.10362760
  WF centre and spread   13  (  2.898251,  3.622248, -7.282612 )     2.77775472
  WF centre and spread   14  (  2.921823,  3.548433, -7.411103 )     2.76336206
  WF centre and spread   15  (  2.910723,  3.551437, -7.382699 )     2.98470477
  WF centre and spread   16  (  2.888196,  1.730211,  8.452691 )     2.77791156
  WF centre and spread   17  (  2.911317,  1.802741,  8.581392 )     2.76036515
  WF centre and spread   18  (  2.900708,  1.801536,  8.552635 )     2.98604133
  Sum of centres and spreads ( 41.592079, 65.430432,-43.451585 )    51.69188157
 
     23    -0.219E-03     0.0367616981       51.6918815725       0.89  <-- CONV
        O_D=      0.0407220 O_OD=      1.0075546 O_TOT=     51.6918816 <-- SPRD
 Delta: O_D=  0.9145837E-05 O_OD= -0.2281620E-03 O_TOT= -0.2190161E-03 <-- DLTA
 ------------------------------------------------------------------------------
 Cycle:     24
  WF centre and spread    1  (  1.133272,  5.552443, -8.411948 )     2.59519819
  WF centre and spread    2  (  1.096248,  5.553271, -8.412316 )     3.09685588
  WF centre and spread    3  (  1.135506,  5.552898, -8.411830 )     3.10314690
  WF centre and spread    4  (  2.898243,  3.622306, -7.282657 )     2.77858212
  WF centre and spread    5  (  2.921814,  3.548436, -7.411101 )     2.76331370
  WF centre and spread    6  (  2.910736,  3.551425, -7.382746 )     2.98411362
  WF centre and spread    7  (  2.888188,  1.730151,  8.452733 )     2.77874134
  WF centre and spread    8  (  2.911308,  1.802738,  8.581390 )     2.76031520
  WF centre and spread    9  (  2.900722,  1.801546,  8.552680 )     2.98543210
  WF centre and spread   10  (  1.133273,  5.552443, -8.411948 )     2.59521006
  WF centre and spread   11  (  1.096250,  5.553271, -8.412316 )     3.09689204
  WF centre and spread   12  (  1.135508,  5.552898, -8.411829 )     3.10317776
  WF centre and spread   13  (  2.898244,  3.622306, -7.282648 )     2.77862623
  WF centre and spread   14  (  2.921815,  3.548436, -7.411101 )     2.76332988
  WF centre and spread   15  (  2.910736,  3.551421, -7.382747 )     2.98416356
  WF centre and spread   16  (  2.888189,  1.730153,  8.452728 )     2.77877778
  WF centre and spread   17  (  2.911309,  1.802738,  8.581390 )     2.76033111
  WF centre and spread   18  (  2.900722,  1.801552,  8.552684 )     2.98549230
  Sum of centres and spreads ( 41.592083, 65.430432,-43.451583 )    51.69169978
 
     24    -0.182E-03     0.0332077283       51.6916997858       0.92  <-- CONV
        O_D=      0.0407304 O_OD=      1.0073645 O_TOT=     51.6916998 <-- SPRD
 Delta: O_D=  0.8367356E-05 O_OD= -0.1901541E-03 O_TOT= -0.1817867E-03 <-- DLTA
 ------------------------------------------------------------------------------
 Cycle:     25
  WF centre and spread    1  (  1.133271,  5.552443, -8.411948 )     2.59519985
  WF centre and spread    2  (  1.096246,  5.553271, -8.412316 )     3.09680359
  WF centre and spread    3  (  1.135504,  5.552898, -8.411830 )     3.10303461
  WF centre and spread    4  (  2.898242,  3.622316, -7.282660 )     2.77869576
  WF centre and spread    5  (  2.921816,  3.548441, -7.411105 )     2.76333640
  WF centre and spread    6  (  2.910739,  3.551420, -7.382751 )     2.98402713
  WF centre and spread    7  (  2.888186,  1.730141,  8.452736 )     2.77885518
  WF centre and spread    8  (  2.911310,  1.802733,  8.581394 )     2.76033662
  WF centre and spread    9  (  2.900725,  1.801551,  8.552686 )     2.98534558
  WF centre and spread   10  (  1.133273,  5.552443, -8.411948 )     2.59521172
  WF centre and spread   11  (  1.096248,  5.553270, -8.412316 )     3.09683975
  WF centre and spread   12  (  1.135506,  5.552898, -8.411829 )     3.10306547
  WF centre and spread   13  (  2.898242,  3.622316, -7.282651 )     2.77873989
  WF centre and spread   14  (  2.921817,  3.548441, -7.411105 )     2.76335257
  WF centre and spread   15  (  2.910739,  3.551416, -7.382752 )     2.98407707
  WF centre and spread   16  (  2.888187,  1.730143,  8.452730 )     2.77889163
  WF centre and spread   17  (  2.911311,  1.802733,  8.581394 )     2.76035254
  WF centre and spread   18  (  2.900725,  1.801557,  8.552689 )     2.98540577
  Sum of centres and spreads ( 41.592087, 65.430432,-43.451583 )    51.69157112
 
     25    -0.129E-03     0.0332450551       51.6915711216       0.95  <-- CONV
        O_D=      0.0407197 O_OD=      1.0072465 O_TOT=     51.6915711 <-- SPRD
 Delta: O_D= -0.1063623E-04 O_OD= -0.1180279E-03 O_TOT= -0.1286642E-03 <-- DLTA
 ------------------------------------------------------------------------------
 Cycle:     26
  WF centre and spread    1  (  1.133271,  5.552442, -8.411948 )     2.59521039
  WF centre and spread    2  (  1.096243,  5.553271, -8.412316 )     3.09670669
  WF centre and spread    3  (  1.135500,  5.552898, -8.411830 )     3.10281068
  WF centre and spread    4  (  2.898237,  3.622339, -7.282666 )     2.77894547
  WF centre and spread    5  (  2.921820,  3.548451, -7.411113 )     2.76339228
  WF centre and spread    6  (  2.910744,  3.551410, -7.382763 )     2.98385138
  WF centre and spread    7  (  2.888182,  1.730119,  8.452742 )     2.77910517
  WF centre and spread    8  (  2.911315,  1.802722,  8.581402 )     2.76038990
  WF centre and spread    9  (  2.900730,  1.801561,  8.552698 )     2.98516958
  WF centre and spread   10  (  1.133272,  5.552443, -8.411948 )     2.59522226
  WF centre and spread   11  (  1.096245,  5.553270, -8.412316 )     3.09674285
  WF centre and spread   12  (  1.135503,  5.552898, -8.411830 )     3.10284153
  WF centre and spread   13  (  2.898238,  3.622338, -7.282657 )     2.77898963
  WF centre and spread   14  (  2.921822,  3.548452, -7.411112 )     2.76340846
  WF centre and spread   15  (  2.910744,  3.551406, -7.382765 )     2.98390131
  WF centre and spread   16  (  2.888183,  1.730121,  8.452736 )     2.77914163
  WF centre and spread   17  (  2.911315,  1.802722,  8.581402 )     2.76040582
  WF centre and spread   18  (  2.900730,  1.801568,  8.552702 )     2.98522975
  Sum of centres and spreads ( 41.592096, 65.430432,-43.451582 )    51.69146477
 
     26    -0.106E-03     0.0253825134       51.6914647693       0.97  <-- CONV
        O_D=      0.0407152 O_OD=      1.0071447 O_TOT=     51.6914648 <-- SPRD
 Delta: O_D= -0.4551110E-05 O_OD= -0.1018012E-03 O_TOT= -0.1063523E-03 <-- DLTA
 ------------------------------------------------------------------------------
 Cycle:     27
  WF centre and spread    1  (  1.133271,  5.552442, -8.411948 )     2.59523339
  WF centre and spread    2  (  1.096240,  5.553271, -8.412316 )     3.09656357
  WF centre and spread    3  (  1.135496,  5.552898, -8.411830 )     3.10246448
  WF centre and spread    4  (  2.898230,  3.622378, -7.282676 )     2.77935895
  WF centre and spread    5  (  2.921826,  3.548467, -7.411124 )     2.76347350
  WF centre and spread    6  (  2.910752,  3.551392, -7.382786 )     2.98356520
  WF centre and spread    7  (  2.888174,  1.730079,  8.452752 )     2.77951876
  WF centre and spread    8  (  2.911321,  1.802706,  8.581413 )     2.76046765
  WF centre and spread    9  (  2.900739,  1.801580,  8.552721 )     2.98488247
  WF centre and spread   10  (  1.133272,  5.552443, -8.411948 )     2.59524527
  WF centre and spread   11  (  1.096242,  5.553270, -8.412316 )     3.09659972
  WF centre and spread   12  (  1.135499,  5.552898, -8.411830 )     3.10249531
  WF centre and spread   13  (  2.898231,  3.622377, -7.282668 )     2.77940315
  WF centre and spread   14  (  2.921828,  3.548468, -7.411124 )     2.76348968
  WF centre and spread   15  (  2.910752,  3.551387, -7.382787 )     2.98361510
  WF centre and spread   16  (  2.888175,  1.730081,  8.452747 )     2.77955526
  WF centre and spread   17  (  2.911321,  1.802706,  8.581413 )     2.76048356
  WF centre and spread   18  (  2.900739,  1.801587,  8.552725 )     2.98494261
  Sum of centres and spreads ( 41.592109, 65.430432,-43.451582 )    51.69135761
 
     27    -0.107E-03     0.0231990045       51.6913576141       1.00  <-- CONV
        O_D=      0.0407130 O_OD=      1.0070397 O_TOT=     51.6913576 <-- SPRD
 Delta: O_D= -0.2202629E-05 O_OD= -0.1049526E-03 O_TOT= -0.1071553E-03 <-- DLTA
 ------------------------------------------------------------------------------
 Cycle:     28
  WF centre and spread    1  (  1.133270,  5.552442, -8.411948 )     2.59526223
  WF centre and spread    2  (  1.096239,  5.553271, -8.412316 )     3.09642049
  WF centre and spread    3  (  1.135494,  5.552898, -8.411830 )     3.10212912
  WF centre and spread    4  (  2.898222,  3.622425, -7.282689 )     2.77981344
  WF centre and spread    5  (  2.921831,  3.548481, -7.411134 )     2.76353811
  WF centre and spread    6  (  2.910760,  3.551368, -7.382813 )     2.98325140
  WF centre and spread    7  (  2.888166,  1.730032,  8.452765 )     2.77997286
  WF centre and spread    8  (  2.911325,  1.802692,  8.581423 )     2.76052935
  WF centre and spread    9  (  2.900748,  1.801604,  8.552748 )     2.98456691
  WF centre and spread   10  (  1.133272,  5.552443, -8.411948 )     2.59527411
  WF centre and spread   11  (  1.096241,  5.553270, -8.412316 )     3.09645663
  WF centre and spread   12  (  1.135496,  5.552898, -8.411830 )     3.10215993
  WF centre and spread   13  (  2.898223,  3.622425, -7.282680 )     2.77985769
  WF centre and spread   14  (  2.921833,  3.548481, -7.411134 )     2.76355429
  WF centre and spread   15  (  2.910760,  3.551364, -7.382814 )     2.98330126
  WF centre and spread   16  (  2.888167,  1.730034,  8.452760 )     2.78000940
  WF centre and spread   17  (  2.911326,  1.802692,  8.581423 )     2.76054526
  WF centre and spread   18  (  2.900748,  1.801611,  8.552752 )     2.98462702
  Sum of centres and spreads ( 41.592122, 65.430432,-43.451581 )    51.69126952
 
     28    -0.881E-04     0.0224112235       51.6912695200       1.03  <-- CONV
        O_D=      0.0407123 O_OD=      1.0069523 O_TOT=     51.6912695 <-- SPRD
 Delta: O_D= -0.7082893E-06 O_OD= -0.8738574E-04 O_TOT= -0.8809402E-04 <-- DLTA
 ------------------------------------------------------------------------------
 Cycle:     29
  WF centre and spread    1  (  1.133270,  5.552442, -8.411948 )     2.59529253
  WF centre and spread    2  (  1.096238,  5.553271, -8.412316 )     3.09630216
  WF centre and spread    3  (  1.135494,  5.552898, -8.411830 )     3.10188319
  WF centre and spread    4  (  2.898214,  3.622473, -7.282701 )     2.78022011
  WF centre and spread    5  (  2.921834,  3.548488, -7.411139 )     2.76356599
  WF centre and spread    6  (  2.910768,  3.551342, -7.382840 )     2.98297047
  WF centre and spread    7  (  2.888158,  1.729984,  8.452777 )     2.78037862
  WF centre and spread    8  (  2.911328,  1.802685,  8.581428 )     2.76055548
  WF centre and spread    9  (  2.900757,  1.801631,  8.552776 )     2.98428370
  WF centre and spread   10  (  1.133271,  5.552443, -8.411948 )     2.59530442
  WF centre and spread   11  (  1.096240,  5.553270, -8.412316 )     3.09633828
  WF centre and spread   12  (  1.135496,  5.552898, -8.411830 )     3.10191398
  WF centre and spread   13  (  2.898215,  3.622473, -7.282692 )     2.78026441
  WF centre and spread   14  (  2.921835,  3.548488, -7.411139 )     2.76358216
  WF centre and spread   15  (  2.910768,  3.551337, -7.382842 )     2.98302030
  WF centre and spread   16  (  2.888159,  1.729986,  8.452772 )     2.78041519
  WF centre and spread   17  (  2.911328,  1.802685,  8.581428 )     2.76057138
  WF centre and spread   18  (  2.900757,  1.801638,  8.552780 )     2.98434377
  Sum of centres and spreads ( 41.592131, 65.430432,-43.451580 )    51.69120615
 
     29    -0.634E-04     0.0195744790       51.6912061488       1.06  <-- CONV
        O_D=      0.0407177 O_OD=      1.0068835 O_TOT=     51.6912061 <-- SPRD
 Delta: O_D=  0.5463630E-05 O_OD= -0.6883481E-04 O_TOT= -0.6337118E-04 <-- DLTA
 ------------------------------------------------------------------------------
 Cycle:     30
  WF centre and spread    1  (  1.133269,  5.552442, -8.411948 )     2.59533200
  WF centre and spread    2  (  1.096238,  5.553271, -8.412317 )     3.09617721
  WF centre and spread    3  (  1.135496,  5.552898, -8.411830 )     3.10168648
  WF centre and spread    4  (  2.898205,  3.622534, -7.282715 )     2.78067062
  WF centre and spread    5  (  2.921835,  3.548489, -7.411140 )     2.76355737
  WF centre and spread    6  (  2.910778,  3.551305, -7.382874 )     2.98265807
  WF centre and spread    7  (  2.888148,  1.729922,  8.452791 )     2.78082743
  WF centre and spread    8  (  2.911329,  1.802684,  8.581429 )     2.76054586
  WF centre and spread    9  (  2.900767,  1.801669,  8.552810 )     2.98396783
  WF centre and spread   10  (  1.133271,  5.552443, -8.411948 )     2.59534389
  WF centre and spread   11  (  1.096240,  5.553271, -8.412316 )     3.09621333
  WF centre and spread   12  (  1.135499,  5.552898, -8.411830 )     3.10171726
  WF centre and spread   13  (  2.898206,  3.622534, -7.282706 )     2.78071497
  WF centre and spread   14  (  2.921837,  3.548489, -7.411140 )     2.76357354
  WF centre and spread   15  (  2.910777,  3.551300, -7.382875 )     2.98270787
  WF centre and spread   16  (  2.888149,  1.729924,  8.452786 )     2.78086404
  WF centre and spread   17  (  2.911329,  1.802684,  8.581429 )     2.76056177
  WF centre and spread   18  (  2.900767,  1.801676,  8.552814 )     2.98402787
  Sum of centres and spreads ( 41.592139, 65.430432,-43.451580 )    51.69114743
 
     30    -0.587E-04     0.0170042082       51.6911474263       1.08  <-- CONV
        O_D=      0.0407276 O_OD=      1.0068149 O_TOT=     51.6911474 <-- SPRD
 Delta: O_D=  0.9844329E-05 O_OD= -0.6856685E-04 O_TOT= -0.5872252E-04 <-- DLTA
 ------------------------------------------------------------------------------
 Cycle:     31
  WF centre and spread    1  (  1.133269,  5.552442, -8.411948 )     2.59533540
  WF centre and spread    2  (  1.096238,  5.553271, -8.412317 )     3.09617039
  WF centre and spread    3  (  1.135497,  5.552898, -8.411830 )     3.10170536
  WF centre and spread    4  (  2.898204,  3.622542, -7.282715 )     2.78069232
  WF centre and spread    5  (  2.921835,  3.548486, -7.411138 )     2.76353767
  WF centre and spread    6  (  2.910779,  3.551298, -7.382877 )     2.98263681
  WF centre and spread    7  (  2.888147,  1.729915,  8.452792 )     2.78084883
  WF centre and spread    8  (  2.911328,  1.802687,  8.581427 )     2.76052642
  WF centre and spread    9  (  2.900768,  1.801676,  8.552813 )     2.98394601
  WF centre and spread   10  (  1.133271,  5.552443, -8.411948 )     2.59534728
  WF centre and spread   11  (  1.096240,  5.553271, -8.412316 )     3.09620650
  WF centre and spread   12  (  1.135500,  5.552898, -8.411830 )     3.10173615
  WF centre and spread   13  (  2.898205,  3.622541, -7.282706 )     2.78073668
  WF centre and spread   14  (  2.921836,  3.548486, -7.411138 )     2.76355384
  WF centre and spread   15  (  2.910778,  3.551294, -7.382878 )     2.98268660
  WF centre and spread   16  (  2.888148,  1.729916,  8.452786 )     2.78088544
  WF centre and spread   17  (  2.911328,  1.802687,  8.581427 )     2.76054232
  WF centre and spread   18  (  2.900768,  1.801682,  8.552816 )     2.98400604
  Sum of centres and spreads ( 41.592138, 65.430432,-43.451580 )    51.69110008
 
     31    -0.473E-04     0.0224883497       51.6911000773       1.11  <-- CONV
        O_D=      0.0407245 O_OD=      1.0067707 O_TOT=     51.6911001 <-- SPRD
 Delta: O_D= -0.3085998E-05 O_OD= -0.4426301E-04 O_TOT= -0.4734901E-04 <-- DLTA
 ------------------------------------------------------------------------------
 Cycle:     32
  WF centre and spread    1  (  1.133269,  5.552442, -8.411948 )     2.59534836
  WF centre and spread    2  (  1.096238,  5.553271, -8.412317 )     3.09615612
  WF centre and spread    3  (  1.135500,  5.552898, -8.411830 )     3.10176071
  WF centre and spread    4  (  2.898200,  3.622565, -7.282716 )     2.78076446
  WF centre and spread    5  (  2.921833,  3.548478, -7.411133 )     2.76348985
  WF centre and spread    6  (  2.910781,  3.551279, -7.382886 )     2.98257575
  WF centre and spread    7  (  2.888143,  1.729891,  8.452793 )     2.78092003
  WF centre and spread    8  (  2.911326,  1.802695,  8.581422 )     2.76047934
  WF centre and spread    9  (  2.900771,  1.801695,  8.552821 )     2.98388337
  WF centre and spread   10  (  1.133270,  5.552443, -8.411948 )     2.59536025
  WF centre and spread   11  (  1.096240,  5.553271, -8.412316 )     3.09619223
  WF centre and spread   12  (  1.135502,  5.552898, -8.411830 )     3.10179149
  WF centre and spread   13  (  2.898201,  3.622565, -7.282707 )     2.78080883
  WF centre and spread   14  (  2.921834,  3.548478, -7.411133 )     2.76350602
  WF centre and spread   15  (  2.910781,  3.551275, -7.382887 )     2.98262555
  WF centre and spread   16  (  2.888144,  1.729893,  8.452787 )     2.78095665
  WF centre and spread   17  (  2.911327,  1.802695,  8.581422 )     2.76049524
  WF centre and spread   18  (  2.900772,  1.801701,  8.552825 )     2.98394339
  Sum of centres and spreads ( 41.592134, 65.430432,-43.451579 )    51.69105766
 
     32    -0.424E-04     0.0145670491       51.6910576582       1.14  <-- CONV
        O_D=      0.0407273 O_OD=      1.0067254 O_TOT=     51.6910577 <-- SPRD
 Delta: O_D=  0.2801480E-05 O_OD= -0.4522065E-04 O_TOT= -0.4241917E-04 <-- DLTA
 ------------------------------------------------------------------------------
 Cycle:     33
  WF centre and spread    1  (  1.133269,  5.552442, -8.411948 )     2.59537218
  WF centre and spread    2  (  1.096238,  5.553272, -8.412317 )     3.09613326
  WF centre and spread    3  (  1.135505,  5.552898, -8.411830 )     3.10183809
  WF centre and spread    4  (  2.898194,  3.622609, -7.282718 )     2.78090760
  WF centre and spread    5  (  2.921831,  3.548465, -7.411125 )     2.76341551
  WF centre and spread    6  (  2.910786,  3.551244, -7.382902 )     2.98245704
  WF centre and spread    7  (  2.888137,  1.729847,  8.452795 )     2.78106156
  WF centre and spread    8  (  2.911323,  1.802707,  8.581414 )     2.76040612
  WF centre and spread    9  (  2.900777,  1.801730,  8.552838 )     2.98376199
  WF centre and spread   10  (  1.133270,  5.552443, -8.411948 )     2.59538407
  WF centre and spread   11  (  1.096240,  5.553271, -8.412316 )     3.09616938
  WF centre and spread   12  (  1.135507,  5.552897, -8.411830 )     3.10186888
  WF centre and spread   13  (  2.898195,  3.622608, -7.282709 )     2.78095199
  WF centre and spread   14  (  2.921832,  3.548466, -7.411125 )     2.76343168
  WF centre and spread   15  (  2.910786,  3.551240, -7.382903 )     2.98250682
  WF centre and spread   16  (  2.888138,  1.729849,  8.452789 )     2.78109819
  WF centre and spread   17  (  2.911324,  1.802707,  8.581414 )     2.76042203
  WF centre and spread   18  (  2.900777,  1.801737,  8.552842 )     2.98382198
  Sum of centres and spreads ( 41.592129, 65.430433,-43.451579 )    51.69100837
 
     33    -0.493E-04     0.0153148705       51.6910083707       1.18  <-- CONV
        O_D=      0.0407342 O_OD=      1.0066692 O_TOT=     51.6910084 <-- SPRD
 Delta: O_D=  0.6928495E-05 O_OD= -0.5621597E-04 O_TOT= -0.4928748E-04 <-- DLTA
 ------------------------------------------------------------------------------
 Cycle:     34
  WF centre and spread    1  (  1.133269,  5.552442, -8.411948 )     2.59540205
  WF centre and spread    2  (  1.096239,  5.553272, -8.412317 )     3.09609935
  WF centre and spread    3  (  1.135510,  5.552898, -8.411830 )     3.10189726
  WF centre and spread    4  (  2.898184,  3.622671, -7.282720 )     2.78112072
  WF centre and spread    5  (  2.921829,  3.548453, -7.411117 )     2.76333945
  WF centre and spread    6  (  2.910793,  3.551195, -7.382924 )     2.98228149
  WF centre and spread    7  (  2.888126,  1.729784,  8.452797 )     2.78127273
  WF centre and spread    8  (  2.911321,  1.802720,  8.581406 )     2.76033102
  WF centre and spread    9  (  2.900785,  1.801780,  8.552860 )     2.98358322
  WF centre and spread   10  (  1.133270,  5.552443, -8.411948 )     2.59541394
  WF centre and spread   11  (  1.096241,  5.553271, -8.412316 )     3.09613547
  WF centre and spread   12  (  1.135513,  5.552897, -8.411830 )     3.10192805
  WF centre and spread   13  (  2.898185,  3.622670, -7.282711 )     2.78116513
  WF centre and spread   14  (  2.921830,  3.548453, -7.411116 )     2.76335561
  WF centre and spread   15  (  2.910793,  3.551190, -7.382926 )     2.98233126
  WF centre and spread   16  (  2.888128,  1.729786,  8.452792 )     2.78130939
  WF centre and spread   17  (  2.911321,  1.802719,  8.581406 )     2.76034694
  WF centre and spread   18  (  2.900785,  1.801787,  8.552864 )     2.98364318
  Sum of centres and spreads ( 41.592122, 65.430433,-43.451578 )    51.69095627
 
     34    -0.521E-04     0.0162308318       51.6909562741       1.21  <-- CONV
        O_D=      0.0407438 O_OD=      1.0066076 O_TOT=     51.6909563 <-- SPRD
 Delta: O_D=  0.9540814E-05 O_OD= -0.6163742E-04 O_TOT= -0.5209661E-04 <-- DLTA
 ------------------------------------------------------------------------------
 Cycle:     35
  WF centre and spread    1  (  1.133269,  5.552442, -8.411948 )     2.59543031
  WF centre and spread    2  (  1.096239,  5.553272, -8.412317 )     3.09605338
  WF centre and spread    3  (  1.135515,  5.552898, -8.411830 )     3.10189638
  WF centre and spread    4  (  2.898173,  3.622741, -7.282721 )     2.78137325
  WF centre and spread    5  (  2.921829,  3.548445, -7.411111 )     2.76329380
  WF centre and spread    6  (  2.910801,  3.551139, -7.382948 )     2.98207431
  WF centre and spread    7  (  2.888114,  1.729713,  8.452798 )     2.78152363
  WF centre and spread    8  (  2.911321,  1.802727,  8.581400 )     2.76028546
  WF centre and spread    9  (  2.900794,  1.801837,  8.552885 )     2.98337324
  WF centre and spread   10  (  1.133270,  5.552443, -8.411948 )     2.59544220
  WF centre and spread   11  (  1.096241,  5.553271, -8.412316 )     3.09608949
  WF centre and spread   12  (  1.135518,  5.552897, -8.411830 )     3.10192717
  WF centre and spread   13  (  2.898174,  3.622741, -7.282712 )     2.78141770
[...]
 Cycle:     92
  WF centre and spread    1  (  1.133271,  5.552442, -8.411944 )     2.59517209
  WF centre and spread    2  (  1.096236,  5.553277, -8.412322 )     3.09578779
  WF centre and spread    3  (  1.135502,  5.552893, -8.411829 )     3.10171735
  WF centre and spread    4  (  2.897703,  3.625254, -7.282356 )     2.78448450
  WF centre and spread    5  (  2.922109,  3.548408, -7.411101 )     2.76350683
  WF centre and spread    6  (  2.911007,  3.548731, -7.383365 )     2.97852570
  WF centre and spread    7  (  2.887622,  1.727169,  8.452434 )     2.78464457
  WF centre and spread    8  (  2.911582,  1.802755,  8.581392 )     2.76045956
  WF centre and spread    9  (  2.901041,  1.804287,  8.553300 )     2.97983967
  WF centre and spread   10  (  1.133272,  5.552442, -8.411944 )     2.59518399
  WF centre and spread   11  (  1.096238,  5.553276, -8.412321 )     3.09582391
  WF centre and spread   12  (  1.135504,  5.552892, -8.411829 )     3.10174816
  WF centre and spread   13  (  2.897703,  3.625254, -7.282347 )     2.78452966
  WF centre and spread   14  (  2.922110,  3.548408, -7.411100 )     2.76352298
  WF centre and spread   15  (  2.911007,  3.548726, -7.383367 )     2.97857470
  WF centre and spread   16  (  2.887623,  1.727171,  8.452429 )     2.78468203
  WF centre and spread   17  (  2.911583,  1.802755,  8.581392 )     2.76047550
  WF centre and spread   18  (  2.901041,  1.804294,  8.553304 )     2.97989879
  Sum of centres and spreads ( 41.592155, 65.430433,-43.451576 )    51.68857778
 
     92    -0.365E-04     0.0133696011       51.6885777811       2.96  <-- CONV
        O_D=      0.0410671 O_OD=      1.0039058 O_TOT=     51.6885778 <-- SPRD
 Delta: O_D=  0.3289726E-05 O_OD= -0.3980213E-04 O_TOT= -0.3651240E-04 <-- DLTA
 ------------------------------------------------------------------------------
 Cycle:     93
  WF centre and spread    1  (  1.133272,  5.552442, -8.411944 )     2.59518911
  WF centre and spread    2  (  1.096237,  5.553277, -8.412322 )     3.09580305
  WF centre and spread    3  (  1.135505,  5.552893, -8.411829 )     3.10186338
  WF centre and spread    4  (  2.897696,  3.625294, -7.282350 )     2.78447638
  WF centre and spread    5  (  2.922108,  3.548395, -7.411094 )     2.76343676
  WF centre and spread    6  (  2.911010,  3.548691, -7.383370 )     2.97850494
  WF centre and spread    7  (  2.887615,  1.727129,  8.452429 )     2.78463580
  WF centre and spread    8  (  2.911581,  1.802768,  8.581385 )     2.76039099
  WF centre and spread    9  (  2.901044,  1.804328,  8.553304 )     2.97981765
  WF centre and spread   10  (  1.133273,  5.552442, -8.411944 )     2.59520101
  WF centre and spread   11  (  1.096239,  5.553277, -8.412321 )     3.09583918
  WF centre and spread   12  (  1.135508,  5.552892, -8.411829 )     3.10189420
  WF centre and spread   13  (  2.897697,  3.625293, -7.282342 )     2.78452154
  WF centre and spread   14  (  2.922109,  3.548395, -7.411093 )     2.76345290
  WF centre and spread   15  (  2.911010,  3.548686, -7.383371 )     2.97855396
  WF centre and spread   16  (  2.887616,  1.727131,  8.452423 )     2.78467326
  WF centre and spread   17  (  2.911581,  1.802767,  8.581385 )     2.76040694
  WF centre and spread   18  (  2.901044,  1.804334,  8.553308 )     2.97987676
  Sum of centres and spreads ( 41.592144, 65.430433,-43.451576 )    51.68853782
 
     93    -0.400E-04     0.0139996883       51.6885378165       2.99  <-- CONV
        O_D=      0.0410736 O_OD=      1.0038593 O_TOT=     51.6885378 <-- SPRD
 Delta: O_D=  0.6516128E-05 O_OD= -0.4648071E-04 O_TOT= -0.3996458E-04 <-- DLTA
 ------------------------------------------------------------------------------
 Cycle:     94
  WF centre and spread    1  (  1.133272,  5.552442, -8.411944 )     2.59520624
  WF centre and spread    2  (  1.096238,  5.553277, -8.412322 )     3.09582106
  WF centre and spread    3  (  1.135509,  5.552893, -8.411829 )     3.10201658
  WF centre and spread    4  (  2.897686,  3.625350, -7.282342 )     2.78448313
  WF centre and spread    5  (  2.922108,  3.548381, -7.411086 )     2.76336689
  WF centre and spread    6  (  2.911014,  3.548635, -7.383377 )     2.97846357
  WF centre and spread    7  (  2.887605,  1.727071,  8.452420 )     2.78464181
  WF centre and spread    8  (  2.911580,  1.802781,  8.581377 )     2.76032243
  WF centre and spread    9  (  2.901049,  1.804385,  8.553312 )     2.97977504
  WF centre and spread   10  (  1.133273,  5.552442, -8.411944 )     2.59521814
  WF centre and spread   11  (  1.096240,  5.553277, -8.412322 )     3.09585719
  WF centre and spread   12  (  1.135512,  5.552892, -8.411829 )     3.10204740
  WF centre and spread   13  (  2.897687,  3.625350, -7.282333 )     2.78452830
  WF centre and spread   14  (  2.922109,  3.548382, -7.411086 )     2.76338303
  WF centre and spread   15  (  2.911013,  3.548630, -7.383378 )     2.97851256
  WF centre and spread   16  (  2.887606,  1.727073,  8.452415 )     2.78467929
  WF centre and spread   17  (  2.911581,  1.802781,  8.581377 )     2.76033838
  WF centre and spread   18  (  2.901049,  1.804391,  8.553315 )     2.97983413
  Sum of centres and spreads ( 41.592133, 65.430433,-43.451576 )    51.68849516
 
     94    -0.427E-04     0.0147445076       51.6884951584       3.02  <-- CONV
        O_D=      0.0410845 O_OD=      1.0038057 O_TOT=     51.6884952 <-- SPRD
 Delta: O_D=  0.1090021E-04 O_OD= -0.5355832E-04 O_TOT= -0.4265811E-04 <-- DLTA
 ------------------------------------------------------------------------------
 Cycle:     95
  WF centre and spread    1  (  1.133273,  5.552442, -8.411944 )     2.59521633
  WF centre and spread    2  (  1.096239,  5.553278, -8.412322 )     3.09583376
  WF centre and spread    3  (  1.135512,  5.552893, -8.411829 )     3.10212293
  WF centre and spread    4  (  2.897674,  3.625420, -7.282332 )     2.78451572
  WF centre and spread    5  (  2.922111,  3.548372, -7.411081 )     2.76332433
  WF centre and spread    6  (  2.911018,  3.548567, -7.383386 )     2.97839897
  WF centre and spread    7  (  2.887592,  1.727001,  8.452410 )     2.78467393
  WF centre and spread    8  (  2.911583,  1.802790,  8.581371 )     2.76028029
  WF centre and spread    9  (  2.901055,  1.804454,  8.553321 )     2.97970977
  WF centre and spread   10  (  1.133274,  5.552442, -8.411944 )     2.59522823
  WF centre and spread   11  (  1.096241,  5.553277, -8.412322 )     3.09586990
  WF centre and spread   12  (  1.135515,  5.552892, -8.411829 )     3.10215375
  WF centre and spread   13  (  2.897675,  3.625419, -7.282323 )     2.78456091
  WF centre and spread   14  (  2.922113,  3.548372, -7.411080 )     2.76334046
  WF centre and spread   15  (  2.911018,  3.548562, -7.383388 )     2.97844795
  WF centre and spread   16  (  2.887593,  1.727003,  8.452405 )     2.78471142
  WF centre and spread   17  (  2.911584,  1.802790,  8.581372 )     2.76029626
  WF centre and spread   18  (  2.901055,  1.804460,  8.553325 )     2.97976884
  Sum of centres and spreads ( 41.592125, 65.430433,-43.451576 )    51.68845376
 
     95    -0.414E-04     0.0145592955       51.6884537608       3.05  <-- CONV
        O_D=      0.0410970 O_OD=      1.0037519 O_TOT=     51.6884538 <-- SPRD
 Delta: O_D=  0.1244603E-04 O_OD= -0.5384364E-04 O_TOT= -0.4139761E-04 <-- DLTA
 ------------------------------------------------------------------------------
 Cycle:     96
  WF centre and spread    1  (  1.133273,  5.552442, -8.411943 )     2.59521669
  WF centre and spread    2  (  1.096240,  5.553278, -8.412322 )     3.09583652
  WF centre and spread    3  (  1.135513,  5.552892, -8.411829 )     3.10217814
  WF centre and spread    4  (  2.897657,  3.625511, -7.282319 )     2.78458747
  WF centre and spread    5  (  2.922119,  3.548366, -7.411078 )     2.76331397
  WF centre and spread    6  (  2.911025,  3.548477, -7.383399 )     2.97829732
  WF centre and spread    7  (  2.887575,  1.726909,  8.452397 )     2.78474561
  WF centre and spread    8  (  2.911590,  1.802796,  8.581368 )     2.76026893
  WF centre and spread    9  (  2.901063,  1.804545,  8.553334 )     2.97960826
  WF centre and spread   10  (  1.133275,  5.552442, -8.411944 )     2.59522860
  WF centre and spread   11  (  1.096242,  5.553277, -8.412322 )     3.09587263
  WF centre and spread   12  (  1.135516,  5.552892, -8.411828 )     3.10220897
  WF centre and spread   13  (  2.897658,  3.625511, -7.282310 )     2.78463269
  WF centre and spread   14  (  2.922120,  3.548366, -7.411077 )     2.76333013
  WF centre and spread   15  (  2.911025,  3.548472, -7.383401 )     2.97834623
  WF centre and spread   16  (  2.887576,  1.726910,  8.452391 )     2.78478315
  WF centre and spread   17  (  2.911591,  1.802796,  8.581368 )     2.76028485
  WF centre and spread   18  (  2.901063,  1.804551,  8.553337 )     2.97966729
  Sum of centres and spreads ( 41.592120, 65.430433,-43.451576 )    51.68840744
 
     96    -0.463E-04     0.0154771996       51.6884074450       3.07  <-- CONV
        O_D=      0.0411101 O_OD=      1.0036924 O_TOT=     51.6884074 <-- SPRD
 Delta: O_D=  0.1319133E-04 O_OD= -0.5950707E-04 O_TOT= -0.4631573E-04 <-- DLTA
 ------------------------------------------------------------------------------
 Cycle:     97
  WF centre and spread    1  (  1.133273,  5.552442, -8.411943 )     2.59520716
  WF centre and spread    2  (  1.096239,  5.553278, -8.412322 )     3.09582503
  WF centre and spread    3  (  1.135512,  5.552892, -8.411829 )     3.10213284
  WF centre and spread    4  (  2.897656,  3.625519, -7.282317 )     2.78460972
  WF centre and spread    5  (  2.922122,  3.548369, -7.411080 )     2.76333523
  WF centre and spread    6  (  2.911026,  3.548469, -7.383401 )     2.97827551
  WF centre and spread    7  (  2.887573,  1.726900,  8.452396 )     2.78476825
  WF centre and spread    8  (  2.911593,  1.802792,  8.581370 )     2.76028943
  WF centre and spread    9  (  2.901064,  1.804553,  8.553335 )     2.97958703
  WF centre and spread   10  (  1.133274,  5.552442, -8.411944 )     2.59521907
  WF centre and spread   11  (  1.096241,  5.553277, -8.412322 )     3.09586117
  WF centre and spread   12  (  1.135515,  5.552892, -8.411829 )     3.10216366
  WF centre and spread   13  (  2.897656,  3.625519, -7.282309 )     2.78465493
  WF centre and spread   14  (  2.922123,  3.548370, -7.411079 )     2.76335136
  WF centre and spread   15  (  2.911026,  3.548465, -7.383402 )     2.97832447
  WF centre and spread   16  (  2.887574,  1.726902,  8.452390 )     2.78480578
  WF centre and spread   17  (  2.911593,  1.802792,  8.581370 )     2.76030540
  WF centre and spread   18  (  2.901064,  1.804559,  8.553339 )     2.97964606
  Sum of centres and spreads ( 41.592124, 65.430433,-43.451576 )    51.68836208
 
     97    -0.454E-04     0.0199921117       51.6883620850       3.10  <-- CONV
        O_D=      0.0411099 O_OD=      1.0036473 O_TOT=     51.6883621 <-- SPRD
 Delta: O_D= -0.2631160E-06 O_OD= -0.4509695E-04 O_TOT= -0.4536006E-04 <-- DLTA
 ------------------------------------------------------------------------------
 Cycle:     98
  WF centre and spread    1  (  1.133273,  5.552442, -8.411943 )     2.59518821
  WF centre and spread    2  (  1.096238,  5.553278, -8.412322 )     3.09580588
  WF centre and spread    3  (  1.135509,  5.552892, -8.411829 )     3.10203539
  WF centre and spread    4  (  2.897651,  3.625540, -7.282314 )     2.78466316
  WF centre and spread    5  (  2.922128,  3.548377, -7.411084 )     2.76338590
  WF centre and spread    6  (  2.911028,  3.548450, -7.383404 )     2.97822870
  WF centre and spread    7  (  2.887568,  1.726880,  8.452392 )     2.78482250
  WF centre and spread    8  (  2.911599,  1.802784,  8.581375 )     2.76033816
  WF centre and spread    9  (  2.901067,  1.804572,  8.553339 )     2.97954153
  WF centre and spread   10  (  1.133274,  5.552442, -8.411944 )     2.59520011
  WF centre and spread   11  (  1.096240,  5.553277, -8.412322 )     3.09584201
  WF centre and spread   12  (  1.135512,  5.552892, -8.411829 )     3.10206621
  WF centre and spread   13  (  2.897652,  3.625539, -7.282305 )     2.78470838
  WF centre and spread   14  (  2.922129,  3.548378, -7.411084 )     2.76340203
  WF centre and spread   15  (  2.911028,  3.548445, -7.383406 )     2.97827764
  WF centre and spread   16  (  2.887569,  1.726881,  8.452387 )     2.78486003
  WF centre and spread   17  (  2.911600,  1.802784,  8.581375 )     2.76035411
  WF centre and spread   18  (  2.901067,  1.804579,  8.553342 )     2.97960056
  Sum of centres and spreads ( 41.592132, 65.430433,-43.451576 )    51.68832049
 
     98    -0.416E-04     0.0154499397       51.6883204894       3.13  <-- CONV
        O_D=      0.0411092 O_OD=      1.0036064 O_TOT=     51.6883205 <-- SPRD
 Delta: O_D= -0.6897555E-06 O_OD= -0.4090582E-04 O_TOT= -0.4159558E-04 <-- DLTA
 ------------------------------------------------------------------------------
 Cycle:     99
  WF centre and spread    1  (  1.133272,  5.552442, -8.411943 )     2.59516173
  WF centre and spread    2  (  1.096236,  5.553278, -8.412322 )     3.09578486
  WF centre and spread    3  (  1.135505,  5.552892, -8.411829 )     3.10189595
  WF centre and spread    4  (  2.897644,  3.625575, -7.282309 )     2.78474662
  WF centre and spread    5  (  2.922138,  3.548388, -7.411091 )     2.76345856
  WF centre and spread    6  (  2.911032,  3.548417, -7.383410 )     2.97815529
  WF centre and spread    7  (  2.887561,  1.726844,  8.452387 )     2.78490707
  WF centre and spread    8  (  2.911609,  1.802773,  8.581381 )     2.76040816
  WF centre and spread    9  (  2.901071,  1.804607,  8.553345 )     2.97946999
  WF centre and spread   10  (  1.133273,  5.552442, -8.411944 )     2.59517363
  WF centre and spread   11  (  1.096238,  5.553277, -8.412322 )     3.09582099
  WF centre and spread   12  (  1.135508,  5.552892, -8.411829 )     3.10192676
  WF centre and spread   13  (  2.897645,  3.625574, -7.282300 )     2.78479185
  WF centre and spread   14  (  2.922139,  3.548389, -7.411090 )     2.76347470
  WF centre and spread   15  (  2.911032,  3.548412, -7.383412 )     2.97820422
  WF centre and spread   16  (  2.887562,  1.726846,  8.452381 )     2.78494461
  WF centre and spread   17  (  2.911609,  1.802773,  8.581381 )     2.76042411
  WF centre and spread   18  (  2.901071,  1.804613,  8.553349 )     2.97952902
  Sum of centres and spreads ( 41.592143, 65.430433,-43.451576 )    51.68827813
 
     99    -0.424E-04     0.0145570477       51.6882781283       3.16  <-- CONV
        O_D=      0.0411102 O_OD=      1.0035630 O_TOT=     51.6882781 <-- SPRD
 Delta: O_D=  0.1015519E-05 O_OD= -0.4337660E-04 O_TOT= -0.4236108E-04 <-- DLTA
 ------------------------------------------------------------------------------
 Cycle:    100
  WF centre and spread    1  (  1.133272,  5.552442, -8.411943 )     2.59513486
  WF centre and spread    2  (  1.096236,  5.553278, -8.412322 )     3.09576965
  WF centre and spread    3  (  1.135501,  5.552892, -8.411829 )     3.10176323
  WF centre and spread    4  (  2.897634,  3.625622, -7.282302 )     2.78484347
  WF centre and spread    5  (  2.922148,  3.548399, -7.411097 )     2.76352806
  WF centre and spread    6  (  2.911036,  3.548372, -7.383418 )     2.97806608
  WF centre and spread    7  (  2.887551,  1.726796,  8.452380 )     2.78500498
  WF centre and spread    8  (  2.911619,  1.802762,  8.581388 )     2.76047505
  WF centre and spread    9  (  2.901075,  1.804653,  8.553353 )     2.97938266
  WF centre and spread   10  (  1.133273,  5.552442, -8.411943 )     2.59514676
  WF centre and spread   11  (  1.096238,  5.553277, -8.412322 )     3.09580577
  WF centre and spread   12  (  1.135504,  5.552892, -8.411829 )     3.10179404
  WF centre and spread   13  (  2.897635,  3.625622, -7.282293 )     2.78488873
  WF centre and spread   14  (  2.922150,  3.548399, -7.411096 )     2.76354421
  WF centre and spread   15  (  2.911036,  3.548367, -7.383420 )     2.97811498
  WF centre and spread   16  (  2.887552,  1.726798,  8.452374 )     2.78504255
  WF centre and spread   17  (  2.911619,  1.802762,  8.581388 )     2.76049099
  WF centre and spread   18  (  2.901076,  1.804659,  8.553356 )     2.97944167
  Sum of centres and spreads ( 41.592155, 65.430433,-43.451576 )    51.68823773
 
    100    -0.404E-04     0.0147402976       51.6882377320       3.18  <-- CONV
        O_D=      0.0411150 O_OD=      1.0035178 O_TOT=     51.6882377 <-- SPRD
 Delta: O_D=  0.4746011E-05 O_OD= -0.4514232E-04 O_TOT= -0.4039631E-04 <-- DLTA
 ------------------------------------------------------------------------------

 Writing checkpoint file wannier90.chk... done

 Final State
  WF centre and spread    1  (  1.133272,  5.552442, -8.411943 )     2.59513486
  WF centre and spread    2  (  1.096236,  5.553278, -8.412322 )     3.09576965
  WF centre and spread    3  (  1.135501,  5.552892, -8.411829 )     3.10176323
  WF centre and spread    4  (  2.897634,  3.625622, -7.282302 )     2.78484347
  WF centre and spread    5  (  2.922148,  3.548399, -7.411097 )     2.76352806
  WF centre and spread    6  (  2.911036,  3.548372, -7.383418 )     2.97806608
  WF centre and spread    7  (  2.887551,  1.726796,  8.452380 )     2.78500498
  WF centre and spread    8  (  2.911619,  1.802762,  8.581388 )     2.76047505
  WF centre and spread    9  (  2.901075,  1.804653,  8.553353 )     2.97938266
  WF centre and spread   10  (  1.133273,  5.552442, -8.411943 )     2.59514676
  WF centre and spread   11  (  1.096238,  5.553277, -8.412322 )     3.09580577
  WF centre and spread   12  (  1.135504,  5.552892, -8.411829 )     3.10179404
  WF centre and spread   13  (  2.897635,  3.625622, -7.282293 )     2.78488873
  WF centre and spread   14  (  2.922150,  3.548399, -7.411096 )     2.76354421
  WF centre and spread   15  (  2.911036,  3.548367, -7.383420 )     2.97811498
  WF centre and spread   16  (  2.887552,  1.726798,  8.452374 )     2.78504255
  WF centre and spread   17  (  2.911619,  1.802762,  8.581388 )     2.76049099
  WF centre and spread   18  (  2.901076,  1.804659,  8.553356 )     2.97944167
  Sum of centres and spreads ( 41.592155, 65.430433,-43.451576 )    51.68823773
 
         Spreads (Ang^2)       Omega I      =    50.643604928
        ================       Omega D      =     0.041114958
                               Omega OD     =     1.003517846
    Final Spread (Ang^2)       Omega Total  =    51.688237732
 ------------------------------------------------------------------------------
  Wannier centres written to file wannier90_centres.xyz
 Time for wannierise            2.984 (sec)

 Writing checkpoint file wannier90.chk... done

 *---------------------------------------------------------------------------*
 |                               PLOTTING                                    |
 *---------------------------------------------------------------------------*
 
 Time for plotting              0.088 (sec)
 Total Execution Time           3.280 (sec)

 *===========================================================================*
 |                             TIMING INFORMATION                            |
 *===========================================================================*
 |    Tag                                                Ncalls      Time (s)|
 |---------------------------------------------------------------------------|
 |kmesh: get                                        :         1         0.024|
 |overlap: read                                     :         1         0.172|
 |wann: main                                        :         1         2.984|
 |plot: main                                        :         1         0.088|
 *---------------------------------------------------------------------------*
 
 All done: wannier90 exiting
