C                                       
   1.0000000000000000     
     2.464138    0.000000    0.000000
    -1.232069    2.134006    0.000000
     0.000000    0.000000   15.000000
   C 
     2
Direct
  0.000000  0.000000  0.144751
  0.666667  0.333333  0.144751

   32   32  196
 0.25195459482E+00 0.25161061237E+00 0.25058002164E+00 0.24885997396E+00 0.24644998320E+00
 0.24335855807E+00 0.23961382182E+00 0.23527982588E+00 0.23047539647E+00 0.22538545604E+00
 0.22025376061E+00 0.21535510491E+00 0.21095815433E+00 0.20729535477E+00 0.20454880537E+00
 0.20284834062E+00 0.20227251534E+00 0.20284777375E+00 0.20454754418E+00 0.20729319973E+00
 0.21095490474E+00 0.21535062961E+00 0.22024808570E+00 0.22537886353E+00 0.23046849002E+00
 0.23527351527E+00 0.23960917530E+00 0.24335647463E+00 0.24645073908E+00 0.24886288895E+00
 0.25058355537E+00 0.25161297590E+00 0.25161297699E+00 0.25161156159E+00 0.25114054930E+00
 0.25018416165E+00 0.24871485068E+00 0.24670159774E+00 0.24412150855E+00 0.24097626905E+00
 0.23731322129E+00 0.23324442571E+00 0.22895203540E+00 0.22467198028E+00 0.22066006068E+00
 0.21715535882E+00 0.21435554537E+00 0.21240793928E+00 0.21140974572E+00 0.21140948774E+00
 0.21240710455E+00 0.21435397941E+00 0.21715287396E+00 0.22065650018E+00 0.22466729369E+00
 0.22894637419E+00 0.23323822838E+00 0.23730724001E+00 0.24097149414E+00 0.24411893597E+00
 0.24670182182E+00 0.24871762871E+00 0.25018826381E+00 0.25114413402E+00 0.25058355166E+00
 0.25070950725E+00 0.25058091154E+00 0.25018413888E+00 0.24947988954E+00 0.24841109629E+00
 0.24691466229E+00 0.24493758801E+00 0.24245860043E+00 0.23951213876E+00 0.23620494704E+00
 0.23271403209E+00 0.22926277115E+00 0.22608450955E+00 0.22338941072E+00 0.22134516996E+00
 0.22007109616E+00 0.21963833351E+00 0.22007054491E+00 0.22134399791E+00 0.22338750810E+00
 0.22608176365E+00 0.22925911416E+00 0.23270951823E+00 0.23619984292E+00 0.23950697832E+00
 0.24245416619E+00 0.24493478161E+00 0.24691421708E+00 0.24841316856E+00 0.24948374985E+00
 0.25018826119E+00 0.24886288262E+00 0.24891640775E+00 0.24891515381E+00 0.24885964668E+00
 0.24871372620E+00 0.24841007721E+00 0.24786040772E+00 0.24697011922E+00 0.24565890292E+00
 0.24388675713E+00 0.24167875346E+00 0.23913692265E+00 0.23643056764E+00 0.23376715930E+00
 0.23135647734E+00 0.22938205183E+00 0.22798595564E+00 0.22726375103E+00 0.22726341922E+00
 0.22798497077E+00 0.22938044003E+00 0.23135426274E+00 0.23376435202E+00 0.23642719584E+00
 0.23913311403E+00 0.24167481501E+00 0.24388320058E+00 0.24565639397E+00 0.24696931962E+00
 0.24786168421E+00 0.24841317118E+00 0.24871762871E+00 0.24645073908E+00 0.24625747952E+00
 0.24618502047E+00 0.24625552043E+00 0.24644757467E+00 0.24669859677E+00 0.24691192771E+00
 0.24696847247E+00 0.24674438730E+00 0.24613619433E+00 0.24508995275E+00 0.24362448468E+00
 0.24183698284E+00 0.23988644150E+00 0.23796187080E+00 0.23624900183E+00 0.23490622329E+00
 0.23405184221E+00 0.23375855972E+00 0.23405095594E+00 0.23490461368E+00 0.23624691493E+00
 0.23795952263E+00 0.23988395393E+00 0.24183442099E+00 0.24362195697E+00 0.24508768874E+00
 0.24613455700E+00 0.24674381373E+00 0.24696931853E+00 0.24691422079E+00 0.24670182815E+00
 0.24335648096E+00 0.24277244070E+00 0.24245655800E+00 0.24245576865E+00 0.24277034549E+00
 0.24335376359E+00 0.24411637130E+00 0.24493289376E+00 0.24565536541E+00 0.24613430291E+00
 0.24624806380E+00 0.24593340183E+00 0.24520491093E+00 0.24415358614E+00 0.24292483407E+00
 0.24168634098E+00 0.24059849930E+00 0.23979421152E+00 0.23936741967E+00 0.23936678040E+00
 0.23979248512E+00 0.24059616575E+00 0.24168394075E+00 0.24292274661E+00 0.24415195176E+00
 0.24520371457E+00 0.24593261299E+00 0.24624772711E+00 0.24613455591E+00 0.24565638873E+00
 0.24493477899E+00 0.24411894121E+00 0.23960917901E+00 0.23851921736E+00 0.23781708780E+00
 0.23757453495E+00 0.23781598330E+00 0.23851729694E+00 0.23960687928E+00 0.24096919940E+00
 0.24245208491E+00 0.24388139628E+00 0.24508617754E+00 0.24593146848E+00 0.24634812199E+00
 0.24634661173E+00 0.24600863807E+00 0.24546167863E+00 0.24484855746E+00 0.24430216120E+00
 0.24392838357E+00 0.24379533192E+00 0.24392672535E+00 0.24429943620E+00 0.24484565959E+00
 0.24545939924E+00 0.24600738608E+00 0.24634639405E+00 0.24634871625E+00 0.24593261561E+00
 0.24508769245E+00 0.24388319796E+00 0.24245415878E+00 0.24097149152E+00 0.23527351419E+00
 0.23358341138E+00 0.23237695425E+00 0.23174944611E+00 0.23174903840E+00 0.23237578986E+00
 0.23358163759E+00 0.23527129427E+00 0.23730468126E+00 0.23950415295E+00 0.24167182344E+00
 0.24361900868E+00 0.24520117709E+00 0.24634477198E+00 0.24705413050E+00 0.24739707453E+00
 0.24747826869E+00 0.24741214257E+00 0.24730198734E+00 0.24722541358E+00 0.24722430204E+00
 0.24729909883E+00 0.24740859358E+00 0.24747531299E+00 0.24739557549E+00 0.24705432698E+00
 0.24634639143E+00 0.24520371457E+00 0.24362196330E+00 0.24167482025E+00 0.23950697570E+00
 0.23730723476E+00 0.23046849002E+00 0.22809380031E+00 0.22627905775E+00 0.22514278544E+00
 0.22475594528E+00 0.22514217142E+00 0.22627781451E+00 0.22809190197E+00 0.23046590343E+00
 0.23323493443E+00 0.23619591110E+00 0.23912877560E+00 0.24183012501E+00 0.24414836638E+00
 0.24600528840E+00 0.24739558789E+00 0.24836813341E+00 0.24900041651E+00 0.24937591659E+00
 0.24956733335E+00 0.24962430135E+00 0.24956484993E+00 0.24937199973E+00 0.24899664928E+00
 0.24836590560E+00 0.24739557658E+00 0.24600738237E+00 0.24415194543E+00 0.24183442099E+00
 0.23913312036E+00 0.23619984663E+00 0.23323822729E+00 0.22537886461E+00 0.22223692337E+00
 0.21971302983E+00 0.21795133384E+00 0.21704676940E+00 0.21704650761E+00 0.21795050102E+00
 0.21971150540E+00 0.22223456026E+00 0.22537554019E+00 0.22894205794E+00 0.23270436567E+00
 0.23642161826E+00 0.23987865058E+00 0.24291864257E+00 0.24545741771E+00 0.24747598210E+00
 0.24899969935E+00 0.25007583137E+00 0.25075589785E+00 0.25108285026E+00 0.25108142868E+00
 0.25075227274E+00 0.25007160118E+00 0.24899665037E+00 0.24747531824E+00 0.24545940186E+00
 0.24292274137E+00 0.23988394760E+00 0.23642719584E+00 0.23270952085E+00 0.22894637419E+00
 0.22024808199E+00 0.21625888915E+00 0.21292384316E+00 0.21041810204E+00 0.20886530224E+00
 0.20833930556E+00 0.20886476507E+00 0.21041690579E+00 0.21292179653E+00 0.21625579959E+00
 0.22024382576E+00 0.22466190133E+00 0.22925287879E+00 0.23375787428E+00 0.23795371009E+00
 0.24167985786E+00 0.24484418258E+00 0.24740995300E+00 0.24937545880E+00 0.25075622868E+00
 0.25157273235E+00 0.25184174107E+00 0.25157013503E+00 0.25075227012E+00 0.24937199602E+00
 0.24740859620E+00 0.24484566701E+00 0.24168394337E+00 0.23795951892E+00 0.23376434940E+00
 0.22925911416E+00 0.22466729107E+00 0.21535062328E+00 0.21044697407E+00 0.20620410288E+00
 0.20283452687E+00 0.20049812299E+00 0.19930243959E+00 0.19930215655E+00 0.20049720604E+00
 0.20283280404E+00 0.20620136602E+00 0.21044304776E+00 0.21534544070E+00 0.22065019899E+00
 0.22607477705E+00 0.23134734038E+00 0.23624106739E+00 0.24059242532E+00 0.24429844752E+00
 0.24730070505E+00 0.24956795490E+00 0.25108434055E+00 0.25184291987E+00 0.25184174369E+00
 0.25108142868E+00 0.24956484360E+00 0.24729909359E+00 0.24429943882E+00 0.24059617100E+00
 0.23624691601E+00 0.23135426274E+00 0.22608176627E+00 0.22065650018E+00 0.21095490474E+00
 0.20509613454E+00 0.19986843509E+00 0.19552579832E+00 0.19227184493E+00 0.19025669364E+00
 0.18957405187E+00 0.19025604750E+00 0.19227043628E+00 0.19552344716E+00 0.19986496212E+00
 0.20509142174E+00 0.21094897184E+00 0.21714597411E+00 0.22338016677E+00 0.22937346608E+00
 0.23489897808E+00 0.23978903267E+00 0.24392578971E+00 0.24722542917E+00 0.24962631615E+00
 0.25108433946E+00 0.25157273606E+00 0.25108285659E+00 0.24962430135E+00 0.24722429571E+00
 0.24392672165E+00 0.23979248620E+00 0.23490461368E+00 0.22938043894E+00 0.22338751180E+00
 0.21715288029E+00 0.20729320605E+00 0.20047560264E+00 0.19422061617E+00 0.18882321262E+00
 0.18453506606E+00 0.18155629048E+00 0.18002915709E+00 0.18002881090E+00 0.18155519987E+00
 0.18453310239E+00 0.18882022595E+00 0.19421648372E+00 0.20047027950E+00 0.20728679532E+00
 0.21434680399E+00 0.22133660096E+00 0.22797810924E+00 0.23404544278E+00 0.23936321418E+00
 0.24379381265E+00 0.24722542808E+00 0.24956794966E+00 0.25075622605E+00 0.25075590310E+00
 0.24956733968E+00 0.24722541358E+00 0.24379532930E+00 0.23936678040E+00 0.23405095485E+00
 0.22798496553E+00 0.22134399529E+00 0.21435398465E+00 0.20454754788E+00 0.19680855248E+00
 0.18952792210E+00 0.18303605018E+00 0.17763212089E+00 0.17356969477E+00 0.17104622577E+00
 0.17018988375E+00 0.17104547384E+00 0.17356811759E+00 0.17762961193E+00 0.18303251042E+00
 0.18952328921E+00 0.19680284231E+00 0.20454090951E+00 0.21239985465E+00 0.22006317063E+00
 0.22725654462E+00 0.23375280817E+00 0.23936321681E+00 0.24392579341E+00 0.24730070243E+00
 0.24937545139E+00 0.25007582874E+00 0.24937592029E+00 0.24730198996E+00 0.24392838357E+00
 0.23936742229E+00 0.23375856342E+00 0.22726341660E+00 0.22007053750E+00 0.21240710193E+00
 0.20284777266E+00 0.19426571101E+00 0.18600870428E+00 0.17843290568E+00 0.17187961097E+00
 0.16665472987E+00 0.16301310850E+00 0.16114187516E+00 0.16114149028E+00 0.16301192507E+00
 0.16665268189E+00 0.17187663038E+00 0.17842894050E+00 0.18600373332E+00 0.19425977678E+00
 0.20284101685E+00 0.21140216257E+00 0.21963082340E+00 0.22725654200E+00 0.23404544278E+00
 0.23978903899E+00 0.24429845276E+00 0.24740995038E+00 0.24899969410E+00 0.24900041542E+00
 0.24741214257E+00 0.24430215858E+00 0.23979421152E+00 0.23405184854E+00 0.22726375627E+00
 0.21963833089E+00 0.21140948249E+00 0.20227251534E+00 0.19296419918E+00 0.18382741181E+00
 0.17523151896E+00 0.16755013699E+00 0.16113626521E+00 0.15630046465E+00 0.15329021318E+00
 0.15226760925E+00 0.15328943433E+00 0.15629886888E+00 0.16113380521E+00 0.16754677542E+00
 0.17522722837E+00 0.18382218311E+00 0.19295806559E+00 0.20226557153E+00 0.21140216365E+00
 0.22006316692E+00 0.22797810291E+00 0.23489897808E+00 0.24059243165E+00 0.24484418629E+00
 0.24747598102E+00 0.24836813341E+00 0.24747826978E+00 0.24484855376E+00 0.24059849297E+00
 0.23490622329E+00 0.22798596197E+00 0.22007109987E+00 0.21140974463E+00 0.20284834171E+00
 0.19296450776E+00 0.18308848076E+00 0.17358910433E+00 0.16485853234E+00 0.15728728434E+00
 0.15123663592E+00 0.14701253287E+00 0.14484010722E+00 0.14483973018E+00 0.14701138201E+00
 0.15123466993E+00 0.15728446744E+00 0.16485483720E+00 0.17358450464E+00 0.18308295836E+00
 0.19295806667E+00 0.20284102210E+00 0.21239985727E+00 0.22133659572E+00 0.22937345975E+00
 0.23624106739E+00 0.24167986048E+00 0.24545741771E+00 0.24739558897E+00 0.24739707977E+00
 0.24546168125E+00 0.24168633574E+00 0.23624899550E+00 0.22938205183E+00 0.22134517258E+00
 0.21240793928E+00 0.20454880166E+00 0.19426669178E+00 0.18382810986E+00 0.17358947562E+00
 0.16394517767E+00 0.15530895437E+00 0.14808367668E+00 0.14262906431E+00 0.13923158672E+00
 0.13807728289E+00 0.13923085792E+00 0.14262756757E+00 0.14808136441E+00 0.15530578950E+00
 0.16394112668E+00 0.17358450201E+00 0.18382217940E+00 0.19425977940E+00 0.20454091692E+00
 0.21434680661E+00 0.22338016307E+00 0.23134733776E+00 0.23795371009E+00 0.24291863995E+00
 0.24600528469E+00 0.24705413312E+00 0.24600864549E+00 0.24292483670E+00 0.23796186709E+00
 0.23135647472E+00 0.22338941072E+00 0.21435554275E+00 0.20729534844E+00 0.19681036007E+00
 0.18601018744E+00 0.17523266467E+00 0.16485931094E+00 0.15530934408E+00 0.14701296413E+00
 0.14037487064E+00 0.13573827392E+00 0.13335354246E+00 0.13335319621E+00 0.13573720874E+00
 0.14037302846E+00 0.14701028951E+00 0.15530579212E+00 0.16485483720E+00 0.17522722204E+00
 0.18600372808E+00 0.19680284493E+00 0.20728680056E+00 0.21714597519E+00 0.22607477705E+00
 0.23375787690E+00 0.23987865058E+00 0.24414836005E+00 0.24634476674E+00 0.24634661435E+00
 0.24415359138E+00 0.23988644258E+00 0.23376715930E+00 0.22608451217E+00 0.21715535882E+00
 0.21095815433E+00 0.20047844549E+00 0.18953034598E+00 0.17843491815E+00 0.16755173729E+00
 0.15728846781E+00 0.14808444713E+00 0.14037524355E+00 0.13455189631E+00 0.13092430534E+00
 0.12969191188E+00 0.13092362539E+00 0.13455048318E+00 0.14037302737E+00 0.14808136811E+00
 0.15728447377E+00 0.16754677542E+00 0.17842893417E+00 0.18952328551E+00 0.20047028058E+00
 0.21094897184E+00 0.22065019791E+00 0.22925288249E+00 0.23642162459E+00 0.24183012501E+00
 0.24520117076E+00 0.24634811829E+00 0.24520491202E+00 0.24183698284E+00 0.23643056656E+00
 0.22926277486E+00 0.22066006701E+00 0.21535511124E+00 0.20510018835E+00 0.19422414893E+00
 0.18303905719E+00 0.17188211396E+00 0.16113828700E+00 0.15123819917E+00 0.14263019340E+00
 0.13573899569E+00 0.13092465116E+00 0.12844851274E+00 0.12844818084E+00 0.13092362431E+00
 0.13573720350E+00 0.14262756495E+00 0.15123467517E+00 0.16113381154E+00 0.17187663038E+00
 0.18303250780E+00 0.19421648372E+00 0.20509142065E+00 0.21534543546E+00 0.22466189870E+00
 0.23270437091E+00 0.23912878193E+00 0.24361900868E+00 0.24593146586E+00 0.24593340183E+00
 0.24362448359E+00 0.23913691740E+00 0.23271402947E+00 0.22467198553E+00 0.22025376432E+00
 0.21045229039E+00 0.19987317746E+00 0.18882732048E+00 0.17763561412E+00 0.16665765376E+00
 0.15630286559E+00 0.14701445148E+00 0.13923305692E+00 0.13335459749E+00 0.12969258996E+00
 0.12844851536E+00 0.12969191558E+00 0.13335319359E+00 0.13923085051E+00 0.14701137938E+00
 0.15629887259E+00 0.16665268451E+00 0.17762961193E+00 0.18882022857E+00 0.19986496583E+00
 0.21044304514E+00 0.22024381835E+00 0.22894205532E+00 0.23619591480E+00 0.24167182606E+00
 0.24508617754E+00 0.24624806642E+00 0.24508995646E+00 0.24167875084E+00 0.23620493963E+00
 0.22895203278E+00 0.22538545495E+00 0.21626532673E+00 0.20621002200E+00 0.19553103318E+00
 0.18453959657E+00 0.17357357060E+00 0.16301639572E+00 0.15329297025E+00 0.14484237730E+00
 0.13807909887E+00 0.13335459486E+00 0.13092465116E+00 0.13092431167E+00 0.13335354770E+00
 0.13807728026E+00 0.14483972493E+00 0.15328943324E+00 0.16301192507E+00 0.17356811497E+00
 0.18453310239E+00 0.19552345348E+00 0.20620137126E+00 0.21625579697E+00 0.22537553495E+00
 0.23323493334E+00 0.23950415294E+00 0.24388139365E+00 0.24613430291E+00 0.24613620066E+00
 0.24388676237E+00 0.23951213614E+00 0.23324442046E+00 0.23047539647E+00 0.22224408615E+00
 0.21293072193E+00 0.20284079706E+00 0.19227738990E+00 0.18156112736E+00 0.17105042535E+00
 0.16114551125E+00 0.15227073570E+00 0.14484237838E+00 0.13923305321E+00 0.13573898937E+00
 0.13455189631E+00 0.13573828025E+00 0.13923159042E+00 0.14484010613E+00 0.15226760925E+00
 0.16114149136E+00 0.17104547013E+00 0.18155519354E+00 0.19227043628E+00 0.20283281037E+00
 0.21292180024E+00 0.22223455917E+00 0.23046590343E+00 0.23730468235E+00 0.24245208120E+00
 0.24565535908E+00 0.24674438730E+00 0.24565890925E+00 0.24245860414E+00 0.23731322020E+00
 0.23527982697E+00 0.22810098718E+00 0.21972041203E+00 0.21042516084E+00 0.20050457518E+00
 0.19026245882E+00 0.18003427115E+00 0.17019442017E+00 0.16114551234E+00 0.15329297549E+00
 0.14701445410E+00 0.14263018815E+00 0.14037523723E+00 0.14037487064E+00 0.14262906693E+00
 0.14701253287E+00 0.15329021426E+00 0.16114188040E+00 0.17018988637E+00 0.18002880566E+00
 0.19025604117E+00 0.20049720604E+00 0.21041690841E+00 0.21971150540E+00 0.22809190306E+00
 0.23527129951E+00 0.24096920202E+00 0.24493288852E+00 0.24696846614E+00 0.24697011922E+00
 0.24493759063E+00 0.24097626905E+00 0.23961381811E+00 0.23358966118E+00 0.22628622565E+00
 0.21795873543E+00 0.20887243910E+00 0.19930905364E+00 0.18958007327E+00 0.18003426853E+00
 0.17105042165E+00 0.16301639834E+00 0.15630287300E+00 0.15123820179E+00 0.14808444342E+00
 0.14701296151E+00 0.14808367668E+00 0.15123663330E+00 0.15630046095E+00 0.16301311112E+00
 0.17104623319E+00 0.18002915972E+00 0.18957404816E+00 0.19930215393E+00 0.20886476507E+00
 0.21795049840E+00 0.22627781081E+00 0.23358164021E+00 0.23960688669E+00 0.24411637392E+00
 0.24691192400E+00 0.24786040510E+00 0.24691466229E+00 0.24412150593E+00 0.24335855175E+00
 0.23852353854E+00 0.23238302865E+00 0.22514989137E+00 0.21705421747E+00 0.20834660736E+00
 0.19930905626E+00 0.19026245882E+00 0.18156112103E+00 0.17357356535E+00 0.16665765638E+00
 0.16113829224E+00 0.15728846890E+00 0.15530934408E+00 0.15530895699E+00 0.15728728434E+00
 0.16113625888E+00 0.16665472462E+00 0.17356969739E+00 0.18155629572E+00 0.19025669472E+00
 0.19930243959E+00 0.20833930818E+00 0.21704650761E+00 0.22514216510E+00 0.23237578462E+00
 0.23851729957E+00 0.24335376884E+00 0.24669859786E+00 0.24841007721E+00 0.24841109891E+00
 0.24670159774E+00 0.24644998320E+00 0.24277419796E+00 0.23782128645E+00 0.23175554615E+00
 0.22476319674E+00 0.21705421638E+00 0.20887244280E+00 0.20050458151E+00 0.19227738990E+00
 0.18453959024E+00 0.17763561041E+00 0.17188211504E+00 0.16755173729E+00 0.16485930985E+00
 0.16394518137E+00 0.16485853866E+00 0.16755013699E+00 0.17187960465E+00 0.17763211718E+00
 0.18453506714E+00 0.19227184493E+00 0.20049812190E+00 0.20886530594E+00 0.21704677573E+00
 0.22475594528E+00 0.23174903208E+00 0.23781597959E+00 0.24277034658E+00 0.24644757467E+00
 0.24871372511E+00 0.24947989325E+00 0.24871485701E+00 0.24885998029E+00 0.24625676491E+00
 0.24245852492E+00 0.23757906503E+00 0.23175554507E+00 0.22514988612E+00 0.21795873281E+00
 0.21042516608E+00 0.20284080339E+00 0.19553103318E+00 0.18882731786E+00 0.18303905719E+00
 0.17843491707E+00 0.17523265943E+00 0.17358947300E+00 0.17358910957E+00 0.17523152529E+00
 0.17843290568E+00 0.18303604755E+00 0.18882321262E+00 0.19552579723E+00 0.20283452162E+00
 0.21041809941E+00 0.21795133908E+00 0.22514279177E+00 0.23174944611E+00 0.23757453233E+00
 0.24245576865E+00 0.24625551934E+00 0.24885964143E+00 0.25018413626E+00 0.25018416689E+00
 0.25058002535E+00 0.24891416123E+00 0.24618505319E+00 0.24245852754E+00 0.23782129016E+00
 0.23238302603E+00 0.22628621824E+00 0.21972040941E+00 0.21293072564E+00 0.20621002462E+00
 0.19987317746E+00 0.19422415155E+00 0.18953034968E+00 0.18601018482E+00 0.18382810245E+00
 0.18308847814E+00 0.18382741551E+00 0.18600870690E+00 0.18952792210E+00 0.19422061879E+00
 0.19986843879E+00 0.20620410026E+00 0.21292383575E+00 0.21971302720E+00 0.22627906146E+00
 0.23237695688E+00 0.23781708780E+00 0.24245656063E+00 0.24618502417E+00 0.24891515119E+00
 0.25058090413E+00 0.25114054668E+00 0.25161061129E+00 0.25070722030E+00 0.24891415861E+00
 0.24625676491E+00 0.24277420429E+00 0.23852354378E+00 0.23358965856E+00 0.22810098194E+00
 0.22224408506E+00 0.21626532673E+00 0.21045228777E+00 0.20510018835E+00 0.20047845182E+00
 0.19681036532E+00 0.19426668916E+00 0.19296450251E+00 0.19296419809E+00 0.19426571101E+00
 0.19680854986E+00 0.20047560264E+00 0.20509614087E+00 0.21044697931E+00 0.21625888653E+00
 0.22223691813E+00 0.22809379922E+00 0.23358341138E+00 0.23851921474E+00 0.24277244070E+00
 0.24625748585E+00 0.24891641299E+00 0.25070950463E+00 0.25161155635E+00 0.33231039725E+00
 0.33169161256E+00 0.32985231124E+00 0.32683437181E+00 0.32270628754E+00 0.31756709133E+00
 0.31155778096E+00 0.30487728082E+00 0.29779263054E+00 0.29063158388E+00 0.28375324194E+00
 0.27750347204E+00 0.27216895266E+00 0.26794450172E+00 0.26492515436E+00 0.26312747282E+00
 0.26253220447E+00 0.26312691374E+00 0.26492390643E+00 0.26794236188E+00 0.27216571657E+00
 0.27749900542E+00 0.28374756913E+00 0.29062498725E+00 0.29778571595E+00 0.30487096080E+00
 0.31155312611E+00 0.31756500238E+00 0.32270704143E+00 0.32683728757E+00 0.32985584675E+00
 0.33169397733E+00 0.33169397845E+00 0.33169255808E+00 0.33071748404E+00 0.32878415450E+00
 0.32592251934E+00 0.32218051715E+00 0.31763498296E+00 0.31240941121E+00 0.30669055788E+00
 0.30073186059E+00 0.29483591172E+00 0.28931813294E+00 0.28446205267E+00 0.28047952008E+00
 0.27748874513E+00 0.27552005557E+00 0.27455013041E+00 0.27454987397E+00 0.27551922571E+00
 0.27748718796E+00 0.28047704811E+00 0.28445850763E+00 0.28931346087E+00 0.29483026031E+00
 0.30072566653E+00 0.30668457446E+00 0.31240463234E+00 0.31763240936E+00 0.32218074692E+00
 0.32592531008E+00 0.32878827255E+00 0.33072108175E+00 0.32985584291E+00 0.33021161704E+00
 0.32985318928E+00 0.32878412570E+00 0.32701291569E+00 0.32455310293E+00 0.32143004491E+00
 0.31769703889E+00 0.31345608938E+00 0.30887201828E+00 0.30416917581E+00 0.29960791072E+00
 0.29544698853E+00 0.29190295553E+00 0.28911862300E+00 0.28715251446E+00 0.28599658613E+00
 0.28561688798E+00 0.28599603095E+00 0.28715133779E+00 0.28911671985E+00 0.29190021647E+00
 0.29544334496E+00 0.29960341231E+00 0.30416408385E+00 0.30886686394E+00 0.31345165638E+00
 0.31769423351E+00 0.32142960627E+00 0.32455519055E+00 0.32701679804E+00 0.32878826984E+00
 0.32683728102E+00 0.32729287899E+00 0.32729161894E+00 0.32683402920E+00 0.32592138829E+00
 0.32455208371E+00 0.32272098360E+00 0.32042870889E+00 0.31770115962E+00 0.31461084767E+00
 0.31128784213E+00 0.30791254630E+00 0.30469108769E+00 0.30182066105E+00 0.29945504975E+00
 0.29768184748E+00 0.29652195846E+00 0.29595428471E+00 0.29595394755E+00 0.29652096007E+00
 0.29768022045E+00 0.29945282543E+00 0.30181785346E+00 0.30468772356E+00 0.30790874815E+00
 0.31128391171E+00 0.31460729437E+00 0.31769865078E+00 0.32042791095E+00 0.32272226808E+00
 0.32455519327E+00 0.32592531008E+00 0.32270704143E+00 0.32302129553E+00 0.32312554972E+00
 0.32301933168E+00 0.32270386997E+00 0.32217751655E+00 0.32142731584E+00 0.32042706678E+00
 0.31914863994E+00 0.31758361073E+00 0.31576438851E+00 0.31377371475E+00 0.31173749915E+00
 0.30980299207E+00 0.30810892466E+00 0.30675724909E+00 0.30579783020E+00 0.30523441444E+00
 0.30504961450E+00 0.30523351612E+00 0.30579620091E+00 0.30675514197E+00 0.30810656212E+00
 0.30980049849E+00 0.31173493767E+00 0.31377118955E+00 0.31576212532E+00 0.31758197100E+00
 0.31914806203E+00 0.32042790982E+00 0.32142961011E+00 0.32218075347E+00 0.31756500893E+00
 0.31751851506E+00 0.31749695986E+00 0.31749617248E+00 0.31751642541E+00 0.31756229987E+00
 0.31762985496E+00 0.31769235598E+00 0.31769763093E+00 0.31758172302E+00 0.31729254310E+00
 0.31681193870E+00 0.31616672793E+00 0.31542477469E+00 0.31467735217E+00 0.31401358868E+00
 0.31349701049E+00 0.31315526496E+00 0.31298815738E+00 0.31298751366E+00 0.31315352639E+00
 0.31349466036E+00 0.31401117186E+00 0.31467525164E+00 0.31542313193E+00 0.31616552686E+00
 0.31681114676E+00 0.31729220267E+00 0.31758196988E+00 0.31769864535E+00 0.31769423080E+00
 0.31763241479E+00 0.31155312995E+00 0.31094423616E+00 0.31058658271E+00 0.31046932700E+00
 0.31058548867E+00 0.31094233305E+00 0.31155084916E+00 0.31240235348E+00 0.31344958524E+00
 0.31460549488E+00 0.31576061617E+00 0.31681000460E+00 0.31767839448E+00 0.31833502349E+00
 0.31879359373E+00 0.31909756504E+00 0.31929705187E+00 0.31942847286E+00 0.31950696207E+00
 0.31953309787E+00 0.31950530296E+00 0.31942574520E+00 0.31929414899E+00 0.31909527871E+00
 0.31879233407E+00 0.31833479901E+00 0.31767898416E+00 0.31681114948E+00 0.31576212916E+00
 0.31460729166E+00 0.31345164870E+00 0.31240462963E+00 0.30487095967E+00 0.30350614054E+00
 0.30261282173E+00 0.30217596766E+00 0.30217556648E+00 0.30261167402E+00 0.30350438666E+00
 0.30486875568E+00 0.30668202314E+00 0.30886403774E+00 0.31128091512E+00 0.31376823704E+00
 0.31616298888E+00 0.31833317943E+00 0.32019625074E+00 0.32172074692E+00 0.32291189825E+00
 0.32378943554E+00 0.32436956412E+00 0.32465874691E+00 0.32465763954E+00 0.32436668593E+00
 0.32378589805E+00 0.32290895055E+00 0.32171925030E+00 0.32019644531E+00 0.31833479629E+00
 0.31616552686E+00 0.31377119610E+00 0.31128391714E+00 0.30886686122E+00 0.30668456904E+00
 0.29778571595E+00 0.29547321882E+00 0.29384190401E+00 0.29288478953E+00 0.29257086509E+00
 0.29288418430E+00 0.29384067325E+00 0.29547132973E+00 0.29778313047E+00 0.30072236490E+00
 0.30416013946E+00 0.30790439812E+00 0.31173063518E+00 0.31541954497E+00 0.31879023546E+00
 0.32171925678E+00 0.32414035453E+00 0.32602832722E+00 0.32737778264E+00 0.32818788333E+00
 0.32845726926E+00 0.32818541325E+00 0.32737388675E+00 0.32602458060E+00 0.32413814085E+00
 0.32171925142E+00 0.31879233023E+00 0.31542312538E+00 0.31173493767E+00 0.30790875471E+00
 0.30416408769E+00 0.30072566541E+00 0.29062498838E+00 0.28717984117E+00 0.28460021151E+00
 0.28290886751E+00 0.28207846914E+00 0.28207820849E+00 0.28290803643E+00 0.28459868581E+00
 0.28717747099E+00 0.29062165102E+00 0.29482592818E+00 0.29959824574E+00 0.30468213775E+00
 0.30979519316E+00 0.31467114833E+00 0.31909329488E+00 0.32290960976E+00 0.32602761266E+00
 0.32839650309E+00 0.32998852473E+00 0.33078767679E+00 0.33078626215E+00 0.32998491749E+00
 0.32839229457E+00 0.32602458173E+00 0.32290895598E+00 0.31909528142E+00 0.31467524621E+00
 0.30980049194E+00 0.30468772356E+00 0.29960341502E+00 0.29483026031E+00 0.28374756529E+00
 0.27900920739E+00 0.27527346050E+00 0.27261832067E+00 0.27104599906E+00 0.27052709932E+00
 0.27104545692E+00 0.27261711456E+00 0.27527140017E+00 0.27900610264E+00 0.28374329533E+00
 0.28930805891E+00 0.29543710617E+00 0.30181137820E+00 0.30810075531E+00 0.31400709386E+00
 0.31929267230E+00 0.32378725166E+00 0.32737733537E+00 0.32998886231E+00 0.33157380303E+00
 0.33210421660E+00 0.33157121287E+00 0.32998491478E+00 0.32737388291E+00 0.32378590076E+00
 0.31929415667E+00 0.31401117458E+00 0.30810655828E+00 0.30181785074E+00 0.29544334496E+00
 0.28931345816E+00 0.27749899887E+00 0.27135545451E+00 0.26628277250E+00 0.26243567178E+00
 0.25987542279E+00 0.25860284739E+00 0.25860256001E+00 0.25987449418E+00 0.26243393375E+00
 0.26628002194E+00 0.27135152008E+00 0.27749381528E+00 0.28445221166E+00 0.29189323923E+00
 0.29944591382E+00 0.30674930444E+00 0.31349092819E+00 0.31942476301E+00 0.32436829722E+00
 0.32818852209E+00 0.33078917657E+00 0.33210539633E+00 0.33210421931E+00 0.33078626215E+00
 0.32818540670E+00 0.32436668050E+00 0.31942574791E+00 0.31349466578E+00 0.30675514310E+00
 0.29945282543E+00 0.29190021919E+00 0.28445850763E+00 0.27216571657E+00 0.26457570435E+00
 0.25804157219E+00 0.25280678387E+00 0.24901575602E+00 0.24673153525E+00 0.24596968660E+00
 0.24673088193E+00 0.24901433667E+00 0.25280442424E+00 0.25803809789E+00 0.26457099859E+00
 0.27215979642E+00 0.28047016257E+00 0.28910939067E+00 0.29767325541E+00 0.30579057284E+00
 0.31315008330E+00 0.31950438055E+00 0.32465878287E+00 0.32845929938E+00 0.33078917544E+00
 0.33157380687E+00 0.33078768334E+00 0.32845726926E+00 0.32465763298E+00 0.31950529912E+00
 0.31315352751E+00 0.30579620091E+00 0.29768021933E+00 0.28911672369E+00 0.28047705466E+00
 0.26794236843E+00 0.25894862129E+00 0.25090900798E+00 0.24415631836E+00 0.23893126552E+00
 0.23538435692E+00 0.23359486827E+00 0.23359452026E+00 0.23538326252E+00 0.23892930018E+00
 0.24415333626E+00 0.25090488743E+00 0.25894331417E+00 0.26793597225E+00 0.27748002134E+00
 0.28714394256E+00 0.29651409654E+00 0.30522800325E+00 0.31298395515E+00 0.31953159471E+00
 0.32465878174E+00 0.32818851666E+00 0.32998885959E+00 0.32998853016E+00 0.32818788989E+00
 0.32465874691E+00 0.31953309515E+00 0.31298751366E+00 0.30523351500E+00 0.29652095465E+00
 0.28715133507E+00 0.27748719339E+00 0.26492391026E+00 0.25465343660E+00 0.24515730644E+00
 0.23684629520E+00 0.23005826073E+00 0.22504442305E+00 0.22197279134E+00 0.22093844722E+00
 0.22197204003E+00 0.22504284878E+00 0.23005575918E+00 0.23684276785E+00 0.24515268808E+00
 0.25464773763E+00 0.26491727485E+00 0.27551196897E+00 0.28598864287E+00 0.29594705884E+00
 0.30504385563E+00 0.31298395786E+00 0.31950438439E+00 0.32436829451E+00 0.32737732769E+00
 0.32839650038E+00 0.32737778648E+00 0.32436956683E+00 0.31950696207E+00 0.31298816009E+00
 0.30504961834E+00 0.29595394483E+00 0.28599602327E+00 0.27551922300E+00 0.26312691262E+00
 0.25177604804E+00 0.24096292959E+00 0.23115292761E+00 0.22276945329E+00 0.21616509863E+00
 0.21160931285E+00 0.20928477990E+00 0.20928439616E+00 0.21160813298E+00 0.21616305694E+00
 0.22276648144E+00 0.23114897160E+00 0.24095796427E+00 0.25177011184E+00 0.26312014549E+00
 0.27454252952E+00 0.28560935539E+00 0.29594705612E+00 0.30522800325E+00 0.31315008985E+00
 0.31942476844E+00 0.32378724894E+00 0.32602760723E+00 0.32602832610E+00 0.32378943554E+00
 0.31942847014E+00 0.31315526496E+00 0.30523442100E+00 0.29595429014E+00 0.28561688527E+00
 0.27454986854E+00 0.26253220447E+00 0.25033873692E+00 0.23842058170E+00 0.22726484382E+00
 0.21735628138E+00 0.20913720658E+00 0.20297899911E+00 0.19916425933E+00 0.19787188672E+00
 0.19916348264E+00 0.20297740676E+00 0.20913475006E+00 0.21735292197E+00 0.22726055231E+00
 0.23841534737E+00 0.25033259247E+00 0.26252524550E+00 0.27454253064E+00 0.28598863903E+00
 0.29651408999E+00 0.30579057284E+00 0.31349093475E+00 0.31929267614E+00 0.32290960864E+00
 0.32414035453E+00 0.32291189938E+00 0.31929704804E+00 0.31349700393E+00 0.30579783020E+00
 0.29652196502E+00 0.28599658997E+00 0.27455012928E+00 0.26312747394E+00 0.25033904126E+00
 0.23757005586E+00 0.22529501956E+00 0.21402576433E+00 0.20427023369E+00 0.19649053914E+00
 0.19106996270E+00 0.18828596278E+00 0.18828558678E+00 0.19106881383E+00 0.19648857375E+00
 0.20426741411E+00 0.21402206286E+00 0.22529041103E+00 0.23756452450E+00 0.25033259359E+00
 0.26312015091E+00 0.27551197169E+00 0.28714393713E+00 0.29767324885E+00 0.30674930444E+00
 0.31400709657E+00 0.31909329488E+00 0.32171925791E+00 0.32172075234E+00 0.31909756776E+00
 0.31401358325E+00 0.30675724253E+00 0.29768184748E+00 0.28715251717E+00 0.27552005557E+00
 0.26492515053E+00 0.25177701793E+00 0.23842127511E+00 0.22529539048E+00 0.21290201543E+00
 0.20178069959E+00 0.19246130052E+00 0.18541737775E+00 0.18102628094E+00 0.17953376480E+00
 0.18102555438E+00 0.18541588254E+00 0.19245898573E+00 0.20177752708E+00 0.21289795389E+00
 0.22529040832E+00 0.23841534353E+00 0.25177011456E+00 0.26491728253E+00 0.27748002406E+00
 0.28910938683E+00 0.29944591110E+00 0.30810075531E+00 0.31467114562E+00 0.31879023162E+00
 0.32019625346E+00 0.31879360141E+00 0.31467735488E+00 0.30810892083E+00 0.29945504703E+00