   2   2   1   0
  0.3943865E+02  0.2464138E-09  0.2464138E-09  0.1500000E-08  0.5000000E-15
   1.0000000000000000E-004
  CAR 
 C                                       
      5.00000000    -15.00000000 3000     -2.23918389      1.00000000
    -15.000  0.2469E+00  0.2078E+01
    -14.993  0.2480E+00  0.2080E+01
    -14.987  0.2492E+00  0.2082E+01
    -14.980  0.2503E+00  0.2083E+01
    -14.973  0.2514E+00  0.2085E+01
    -14.967  0.2526E+00  0.2087E+01
    -14.960  0.2537E+00  0.2088E+01
    -14.953  0.2549E+00  0.2090E+01
    -14.947  0.2560E+00  0.2092E+01
    -14.940  0.2571E+00  0.2094E+01
    -14.933  0.2583E+00  0.2095E+01
    -14.927  0.3042E+00  0.2097E+01
    -14.920  0.3544E+00  0.2099E+01
    -14.913  0.4046E+00  0.2102E+01
    -14.907  0.4548E+00  0.2105E+01
    -14.900  0.5050E+00  0.2108E+01
    -14.893  0.5552E+00  0.2111E+01
    -14.887  0.6055E+00  0.2115E+01
    -14.880  0.6557E+00  0.2120E+01
    -14.873  0.7059E+00  0.2124E+01
    -14.867  0.7561E+00  0.2129E+01
    -14.860  0.8063E+00  0.2134E+01
    -14.853  0.8565E+00  0.2140E+01
    -14.847  0.9067E+00  0.2146E+01
    -14.840  0.9595E+00  0.2152E+01
    -14.833  0.3199E+00  0.2155E+01
    -14.827  0.3235E+00  0.2157E+01
    -14.820  0.3271E+00  0.2159E+01
    -14.813  0.3308E+00  0.2162E+01
    -14.807  0.3344E+00  0.2164E+01
    -14.800  0.3380E+00  0.2166E+01
    -14.793  0.3416E+00  0.2168E+01
    -14.787  0.3452E+00  0.2171E+01
    -14.780  0.3488E+00  0.2173E+01
    -14.773  0.3524E+00  0.2175E+01
    -14.767  0.3560E+00  0.2178E+01
    -14.760  0.3596E+00  0.2180E+01
    -14.753  0.3632E+00  0.2182E+01
    -14.747  0.3669E+00  0.2185E+01
    -14.740  0.3705E+00  0.2187E+01
    -14.733  0.3741E+00  0.2190E+01
    -14.727  0.3777E+00  0.2192E+01
    -14.720  0.3813E+00  0.2195E+01
    -14.713  0.3849E+00  0.2197E+01
    -14.707  0.3885E+00  0.2200E+01
    -14.700  0.3921E+00  0.2202E+01
    -14.693  0.3957E+00  0.2205E+01
    -14.687  0.3993E+00  0.2208E+01
    -14.680  0.4030E+00  0.2210E+01
    -14.673  0.4066E+00  0.2213E+01
    -14.667  0.4102E+00  0.2216E+01
    -14.660  0.4138E+00  0.2219E+01
    -14.653  0.4174E+00  0.2221E+01
    -14.647  0.4210E+00  0.2224E+01
    -14.640  0.4246E+00  0.2227E+01
    -14.633  0.4282E+00  0.2230E+01
    -14.627  0.4318E+00  0.2233E+01
    -14.620  0.4355E+00  0.2236E+01
    -14.613  0.4391E+00  0.2239E+01
    -14.607  0.4427E+00  0.2241E+01
    -14.600  0.4463E+00  0.2244E+01
    -14.593  0.4499E+00  0.2247E+01
    -14.587  0.4535E+00  0.2250E+01
    -14.580  0.4571E+00  0.2253E+01
    -14.573  0.4607E+00  0.2257E+01
    -14.567  0.4643E+00  0.2260E+01
    -14.560  0.4679E+00  0.2263E+01
    -14.553  0.4716E+00  0.2266E+01
    -14.547  0.4752E+00  0.2269E+01
    -14.540  0.4788E+00  0.2272E+01
    -14.533  0.4824E+00  0.2275E+01
    -14.527  0.4860E+00  0.2279E+01
    -14.520  0.4896E+00  0.2282E+01
    -14.513  0.4932E+00  0.2285E+01
    -14.507  0.4968E+00  0.2288E+01
    -14.500  0.5004E+00  0.2292E+01
    -14.493  0.5040E+00  0.2295E+01
    -14.486  0.5077E+00  0.2298E+01
    -14.480  0.5113E+00  0.2302E+01
    -14.473  0.5149E+00  0.2305E+01
    -14.466  0.5185E+00  0.2309E+01
    -14.460  0.5221E+00  0.2312E+01
    -14.453  0.5257E+00  0.2316E+01
    -14.446  0.5293E+00  0.2319E+01
    -14.440  0.5329E+00  0.2323E+01
    -14.433  0.5365E+00  0.2326E+01
    -14.426  0.5401E+00  0.2330E+01
    -14.420  0.5438E+00  0.2334E+01
    -14.413  0.5474E+00  0.2337E+01
    -14.406  0.5510E+00  0.2341E+01
    -14.400  0.5546E+00  0.2345E+01
    -14.393  0.5582E+00  0.2348E+01
    -14.386  0.5618E+00  0.2352E+01
    -14.380  0.5654E+00  0.2356E+01
    -14.373  0.5690E+00  0.2360E+01
    -14.366  0.5726E+00  0.2363E+01
    -14.360  0.5763E+00  0.2367E+01
    -14.353  0.5799E+00  0.2371E+01
    -14.346  0.5835E+00  0.2375E+01
    -14.340  0.5871E+00  0.2379E+01
    -14.333  0.5907E+00  0.2383E+01
    -14.326  0.5943E+00  0.2387E+01
    -14.320  0.5979E+00  0.2391E+01
    -14.313  0.6016E+00  0.2395E+01
    -14.306  0.6056E+00  0.2399E+01
    -14.300  0.6096E+00  0.2403E+01
    -14.293  0.3821E+00  0.2406E+01
    -14.286  0.3815E+00  0.2408E+01
    -14.280  0.3809E+00  0.2411E+01
    -14.273  0.3802E+00  0.2413E+01
    -14.266  0.3796E+00  0.2416E+01
    -14.260  0.3789E+00  0.2418E+01
    -14.253  0.3783E+00  0.2421E+01
    -14.246  0.3777E+00  0.2423E+01
    -14.240  0.3770E+00  0.2426E+01
    -14.233  0.3764E+00  0.2428E+01
    -14.226  0.3757E+00  0.2431E+01
    -14.220  0.3751E+00  0.2433E+01
    -14.213  0.3745E+00  0.2436E+01
    -14.206  0.3738E+00  0.2438E+01
    -14.200  0.3732E+00  0.2441E+01
    -14.193  0.3725E+00  0.2443E+01
    -14.186  0.3719E+00  0.2446E+01
    -14.180  0.3713E+00  0.2448E+01
    -14.173  0.3706E+00  0.2451E+01
    -14.166  0.3700E+00  0.2453E+01
    -14.160  0.3693E+00  0.2456E+01
    -14.153  0.3687E+00  0.2458E+01
    -14.146  0.3681E+00  0.2461E+01
    -14.140  0.3674E+00  0.2463E+01
    -14.133  0.3668E+00  0.2466E+01
    -14.126  0.3661E+00  0.2468E+01
    -14.120  0.3655E+00  0.2470E+01
    -14.113  0.3648E+00  0.2473E+01
    -14.106  0.3642E+00  0.2475E+01
    -14.100  0.3636E+00  0.2478E+01
    -14.093  0.3629E+00  0.2480E+01
    -14.086  0.3623E+00  0.2483E+01
    -14.080  0.3616E+00  0.2485E+01
    -14.073  0.3610E+00  0.2487E+01
    -14.066  0.3604E+00  0.2490E+01
    -14.060  0.3597E+00  0.2492E+01
    -14.053  0.3591E+00  0.2495E+01
    -14.046  0.3584E+00  0.2497E+01
    -14.040  0.3578E+00  0.2499E+01
    -14.033  0.3572E+00  0.2502E+01
    -14.026  0.3565E+00  0.2504E+01
    -14.020  0.3559E+00  0.2507E+01
    -14.013  0.3552E+00  0.2509E+01
    -14.006  0.3546E+00  0.2511E+01
    -14.000  0.3540E+00  0.2514E+01
    -13.993  0.3533E+00  0.2516E+01
    -13.986  0.3527E+00  0.2518E+01
    -13.980  0.3520E+00  0.2521E+01
    -13.973  0.3514E+00  0.2523E+01
    -13.966  0.3508E+00  0.2525E+01
    -13.960  0.3501E+00  0.2528E+01
    -13.953  0.3495E+00  0.2530E+01
    -13.946  0.3488E+00  0.2532E+01
    -13.940  0.3482E+00  0.2535E+01
    -13.933  0.3475E+00  0.2537E+01
    -13.926  0.3469E+00  0.2539E+01
    -13.920  0.3463E+00  0.2542E+01
    -13.913  0.3456E+00  0.2544E+01
    -13.906  0.3450E+00  0.2546E+01
    -13.900  0.3443E+00  0.2549E+01
    -13.893  0.3437E+00  0.2551E+01
    -13.886  0.3430E+00  0.2553E+01
    -13.880  0.3424E+00  0.2555E+01
    -13.873  0.3417E+00  0.2558E+01
    -13.866  0.3410E+00  0.2560E+01
    -13.860  0.3403E+00  0.2562E+01
    -13.853  0.3397E+00  0.2565E+01
    -13.846  0.3390E+00  0.2567E+01
    -13.840  0.3383E+00  0.2569E+01
    -13.833  0.3376E+00  0.2571E+01
    -13.826  0.3370E+00  0.2574E+01
    -13.820  0.3363E+00  0.2576E+01
    -13.813  0.3356E+00  0.2578E+01
    -13.806  0.3350E+00  0.2580E+01
    -13.800  0.3343E+00  0.2583E+01
    -13.793  0.3336E+00  0.2585E+01
    -13.786  0.3329E+00  0.2587E+01
    -13.780  0.3323E+00  0.2589E+01
    -13.773  0.3316E+00  0.2591E+01
    -13.766  0.3309E+00  0.2594E+01
    -13.760  0.3302E+00  0.2596E+01
    -13.753  0.3296E+00  0.2598E+01
    -13.746  0.3289E+00  0.2600E+01
    -13.740  0.3282E+00  0.2602E+01
    -13.733  0.3276E+00  0.2605E+01
    -13.726  0.3269E+00  0.2607E+01
    -13.720  0.3262E+00  0.2609E+01
    -13.713  0.3255E+00  0.2611E+01
    -13.706  0.3249E+00  0.2613E+01
    -13.700  0.3242E+00  0.2615E+01
    -13.693  0.3235E+00  0.2618E+01
    -13.686  0.3228E+00  0.2620E+01
    -13.680  0.3222E+00  0.2622E+01
    -13.673  0.3215E+00  0.2624E+01
    -13.666  0.3208E+00  0.2626E+01
    -13.660  0.3202E+00  0.2628E+01
    -13.653  0.3195E+00  0.2630E+01
    -13.646  0.3188E+00  0.2633E+01
    -13.640  0.3181E+00  0.2635E+01
    -13.633  0.3175E+00  0.2637E+01
    -13.626  0.3168E+00  0.2639E+01
    -13.620  0.3161E+00  0.2641E+01
    -13.613  0.3155E+00  0.2643E+01
    -13.606  0.3148E+00  0.2645E+01
    -13.600  0.3141E+00  0.2647E+01
    -13.593  0.3134E+00  0.2649E+01
    -13.586  0.3128E+00  0.2652E+01
    -13.580  0.3121E+00  0.2654E+01
    -13.573  0.3114E+00  0.2656E+01
    -13.566  0.3108E+00  0.2658E+01
    -13.560  0.3101E+00  0.2660E+01
    -13.553  0.3095E+00  0.2662E+01
    -13.546  0.3088E+00  0.2664E+01
    -13.540  0.3082E+00  0.2666E+01
    -13.533  0.3075E+00  0.2668E+01
    -13.526  0.3069E+00  0.2670E+01
    -13.520  0.3062E+00  0.2672E+01
    -13.513  0.3055E+00  0.2674E+01
    -13.506  0.3049E+00  0.2676E+01
    -13.499  0.3042E+00  0.2678E+01
    -13.493  0.3036E+00  0.2680E+01
    -13.486  0.3029E+00  0.2682E+01
    -13.479  0.3023E+00  0.2684E+01
    -13.473  0.3016E+00  0.2686E+01
    -13.466  0.3010E+00  0.2688E+01
    -13.459  0.3003E+00  0.2690E+01
    -13.453  0.2997E+00  0.2692E+01
    -13.446  0.2990E+00  0.2694E+01
    -13.439  0.2983E+00  0.2696E+01
    -13.433  0.2977E+00  0.2698E+01
    -13.426  0.2970E+00  0.2700E+01
    -13.419  0.2964E+00  0.2702E+01
    -13.413  0.2957E+00  0.2704E+01
    -13.406  0.2951E+00  0.2706E+01
    -13.399  0.2944E+00  0.2708E+01
    -13.393  0.2938E+00  0.2710E+01
    -13.386  0.2931E+00  0.2712E+01
    -13.379  0.2925E+00  0.2714E+01
    -13.373  0.2918E+00  0.2716E+01
    -13.366  0.2911E+00  0.2718E+01
    -13.359  0.2904E+00  0.2720E+01
    -13.353  0.2897E+00  0.2722E+01
    -13.346  0.2890E+00  0.2724E+01
    -13.339  0.2883E+00  0.2726E+01
    -13.333  0.2876E+00  0.2728E+01
    -13.326  0.2869E+00  0.2730E+01
    -13.319  0.2863E+00  0.2731E+01
    -13.313  0.2856E+00  0.2733E+01
    -13.306  0.2849E+00  0.2735E+01
    -13.299  0.2842E+00  0.2737E+01
    -13.293  0.2835E+00  0.2739E+01
    -13.286  0.2828E+00  0.2741E+01
    -13.279  0.2821E+00  0.2743E+01
    -13.273  0.2814E+00  0.2745E+01
    -13.266  0.2807E+00  0.2747E+01
    -13.259  0.2800E+00  0.2748E+01
    -13.253  0.2793E+00  0.2750E+01
    -13.246  0.2791E+00  0.2752E+01
    -13.239  0.2790E+00  0.2754E+01
    -13.233  0.2788E+00  0.2756E+01
    -13.226  0.2787E+00  0.2758E+01
    -13.219  0.2786E+00  0.2760E+01
    -13.213  0.2784E+00  0.2761E+01
    -13.206  0.2783E+00  0.2763E+01
    -13.199  0.2781E+00  0.2765E+01
    -13.193  0.2780E+00  0.2767E+01
    -13.186  0.2778E+00  0.2769E+01
    -13.179  0.2777E+00  0.2771E+01
    -13.173  0.2776E+00  0.2773E+01
    -13.166  0.2774E+00  0.2774E+01
    -13.159  0.2773E+00  0.2776E+01
    -13.153  0.2771E+00  0.2778E+01
    -13.146  0.2770E+00  0.2780E+01
    -13.139  0.2768E+00  0.2782E+01
    -13.133  0.2767E+00  0.2784E+01
    -13.126  0.2766E+00  0.2786E+01
    -13.119  0.2764E+00  0.2787E+01
    -13.113  0.2763E+00  0.2789E+01
    -13.106  0.2761E+00  0.2791E+01
    -13.099  0.2760E+00  0.2793E+01
    -13.093  0.2758E+00  0.2795E+01
    -13.086  0.2757E+00  0.2797E+01
    -13.079  0.2756E+00  0.2798E+01
    -13.073  0.2754E+00  0.2800E+01
    -13.066  0.2753E+00  0.2802E+01
    -13.059  0.2751E+00  0.2804E+01
    -13.053  0.2750E+00  0.2806E+01
    -13.046  0.2748E+00  0.2808E+01
    -13.039  0.2747E+00  0.2809E+01
    -13.033  0.2746E+00  0.2811E+01
    -13.026  0.2744E+00  0.2813E+01
    -13.019  0.2743E+00  0.2815E+01
    -13.013  0.2741E+00  0.2817E+01
    -13.006  0.2740E+00  0.2819E+01
    -12.999  0.2738E+00  0.2820E+01
    -12.993  0.2737E+00  0.2822E+01
    -12.986  0.2736E+00  0.2824E+01
    -12.979  0.2734E+00  0.2826E+01
    -12.973  0.2733E+00  0.2828E+01
    -12.966  0.2731E+00  0.2830E+01
    -12.959  0.2730E+00  0.2831E+01
    -12.953  0.2728E+00  0.2833E+01
    -12.946  0.2727E+00  0.2835E+01
    -12.939  0.2726E+00  0.2837E+01
    -12.933  0.2724E+00  0.2839E+01
    -12.926  0.2723E+00  0.2840E+01
    -12.919  0.2721E+00  0.2842E+01
    -12.913  0.2720E+00  0.2844E+01
    -12.906  0.2718E+00  0.2846E+01
    -12.899  0.2717E+00  0.2848E+01
    -12.893  0.2716E+00  0.2850E+01
    -12.886  0.2714E+00  0.2851E+01
    -12.879  0.2713E+00  0.2853E+01
    -12.873  0.2711E+00  0.2855E+01
    -12.866  0.2710E+00  0.2857E+01
    -12.859  0.2708E+00  0.2859E+01
    -12.853  0.2707E+00  0.2860E+01
    -12.846  0.2706E+00  0.2862E+01
    -12.839  0.2704E+00  0.2864E+01
    -12.833  0.2703E+00  0.2866E+01
    -12.826  0.2701E+00  0.2868E+01
    -12.819  0.2700E+00  0.2869E+01
    -12.813  0.2698E+00  0.2871E+01
    -12.806  0.2701E+00  0.2873E+01
    -12.799  0.2718E+00  0.2875E+01
    -12.793  0.2736E+00  0.2877E+01
    -12.786  0.2753E+00  0.2878E+01
    -12.779  0.2771E+00  0.2880E+01
    -12.773  0.2788E+00  0.2882E+01
    -12.766  0.2806E+00  0.2884E+01
    -12.759  0.2823E+00  0.2886E+01
    -12.753  0.2841E+00  0.2888E+01
    -12.746  0.2858E+00  0.2890E+01
    -12.739  0.2875E+00  0.2892E+01
    -12.733  0.2893E+00  0.2893E+01
    -12.726  0.2910E+00  0.2895E+01
    -12.719  0.2928E+00  0.2897E+01
    -12.713  0.2945E+00  0.2899E+01
    -12.706  0.2963E+00  0.2901E+01
    -12.699  0.2980E+00  0.2903E+01
    -12.693  0.2997E+00  0.2905E+01
    -12.686  0.3015E+00  0.2907E+01
    -12.679  0.3032E+00  0.2909E+01
    -12.673  0.3049E+00  0.2911E+01
    -12.666  0.3067E+00  0.2913E+01
    -12.659  0.3084E+00  0.2915E+01
    -12.653  0.3101E+00  0.2917E+01
    -12.646  0.3119E+00  0.2920E+01
    -12.639  0.3136E+00  0.2922E+01
    -12.633  0.3153E+00  0.2924E+01
    -12.626  0.3170E+00  0.2926E+01
    -12.619  0.3188E+00  0.2928E+01
    -12.613  0.3205E+00  0.2930E+01
    -12.606  0.3222E+00  0.2932E+01
    -12.599  0.3240E+00  0.2934E+01
    -12.593  0.3257E+00  0.2937E+01
    -12.586  0.3274E+00  0.2939E+01
    -12.579  0.3292E+00  0.2941E+01
    -12.573  0.3309E+00  0.2943E+01
    -12.566  0.3326E+00  0.2945E+01
    -12.559  0.3344E+00  0.2948E+01
    -12.553  0.3361E+00  0.2950E+01
    -12.546  0.3378E+00  0.2952E+01
    -12.539  0.3395E+00  0.2954E+01
    -12.533  0.3413E+00  0.2957E+01
    -12.526  0.3430E+00  0.2959E+01
    -12.519  0.3447E+00  0.2961E+01
    -12.513  0.3465E+00  0.2963E+01
    -12.506  0.3482E+00  0.2966E+01
    -12.499  0.3499E+00  0.2968E+01
    -12.492  0.3517E+00  0.2970E+01
    -12.486  0.3534E+00  0.2973E+01
    -12.479  0.3551E+00  0.2975E+01
    -12.472  0.3569E+00  0.2978E+01
    -12.466  0.3320E+00  0.2980E+01
    -12.459  0.3338E+00  0.2982E+01
    -12.452  0.3356E+00  0.2984E+01
    -12.446  0.3374E+00  0.2987E+01
    -12.439  0.3392E+00  0.2989E+01
    -12.432  0.3410E+00  0.2991E+01
    -12.426  0.3428E+00  0.2993E+01
    -12.419  0.3446E+00  0.2996E+01
    -12.412  0.3464E+00  0.2998E+01
    -12.406  0.3482E+00  0.3000E+01
    -12.399  0.3500E+00  0.3003E+01
    -12.392  0.3518E+00  0.3005E+01
    -12.386  0.3536E+00  0.3007E+01
    -12.379  0.3554E+00  0.3010E+01
    -12.372  0.3572E+00  0.3012E+01
    -12.366  0.3590E+00  0.3014E+01
    -12.359  0.3608E+00  0.3017E+01
    -12.352  0.3626E+00  0.3019E+01
    -12.346  0.3644E+00  0.3022E+01
    -12.339  0.3662E+00  0.3024E+01
    -12.332  0.3680E+00  0.3027E+01
    -12.326  0.3697E+00  0.3029E+01
    -12.319  0.3715E+00  0.3031E+01
    -12.312  0.3733E+00  0.3034E+01
    -12.306  0.3751E+00  0.3036E+01
    -12.299  0.3769E+00  0.3039E+01
    -12.292  0.3787E+00  0.3041E+01
    -12.286  0.3805E+00  0.3044E+01
    -12.279  0.3823E+00  0.3047E+01
    -12.272  0.3841E+00  0.3049E+01
    -12.266  0.3859E+00  0.3052E+01
    -12.259  0.3877E+00  0.3054E+01
    -12.252  0.3895E+00  0.3057E+01
    -12.246  0.3913E+00  0.3059E+01
    -12.239  0.3931E+00  0.3062E+01
    -12.232  0.3949E+00  0.3065E+01
    -12.226  0.3967E+00  0.3067E+01
    -12.219  0.3985E+00  0.3070E+01
    -12.212  0.4003E+00  0.3073E+01
    -12.206  0.4021E+00  0.3075E+01
    -12.199  0.4039E+00  0.3078E+01
    -12.192  0.3785E+00  0.3081E+01
    -12.186  0.3785E+00  0.3083E+01
    -12.179  0.3785E+00  0.3086E+01
    -12.172  0.3785E+00  0.3088E+01
    -12.166  0.3785E+00  0.3091E+01
    -12.159  0.3785E+00  0.3093E+01
    -12.152  0.3784E+00  0.3096E+01
    -12.146  0.3784E+00  0.3098E+01
    -12.139  0.3784E+00  0.3101E+01
    -12.132  0.3784E+00  0.3103E+01
    -12.126  0.3784E+00  0.3106E+01
    -12.119  0.3784E+00  0.3108E+01
    -12.112  0.3784E+00  0.3111E+01
    -12.106  0.3783E+00  0.3113E+01
    -12.099  0.3783E+00  0.3116E+01
    -12.092  0.3783E+00  0.3119E+01
    -12.086  0.3783E+00  0.3121E+01
    -12.079  0.3783E+00  0.3124E+01
    -12.072  0.3783E+00  0.3126E+01
    -12.066  0.3783E+00  0.3129E+01
    -12.059  0.3782E+00  0.3131E+01
    -12.052  0.3782E+00  0.3134E+01
    -12.046  0.3782E+00  0.3136E+01
    -12.039  0.3782E+00  0.3139E+01
    -12.032  0.3782E+00  0.3141E+01
    -12.026  0.3782E+00  0.3144E+01
    -12.019  0.3781E+00  0.3146E+01
    -12.012  0.3781E+00  0.3149E+01
    -12.006  0.3781E+00  0.3151E+01
    -11.999  0.3781E+00  0.3154E+01
    -11.992  0.3781E+00  0.3156E+01
    -11.986  0.3781E+00  0.3159E+01
    -11.979  0.3781E+00  0.3161E+01
    -11.972  0.3780E+00  0.3164E+01
    -11.966  0.3780E+00  0.3166E+01
    -11.959  0.3780E+00  0.3169E+01
    -11.952  0.3780E+00  0.3171E+01
    -11.946  0.3780E+00  0.3174E+01
    -11.939  0.3780E+00  0.3177E+01
    -11.932  0.3780E+00  0.3179E+01
    -11.926  0.3779E+00  0.3182E+01
    -11.919  0.3779E+00  0.3184E+01
    -11.912  0.3779E+00  0.3187E+01
    -11.906  0.3779E+00  0.3189E+01
    -11.899  0.3779E+00  0.3192E+01
    -11.892  0.3779E+00  0.3194E+01
    -11.886  0.3779E+00  0.3197E+01
    -11.879  0.3778E+00  0.3199E+01
    -11.872  0.3778E+00  0.3202E+01
    -11.866  0.3778E+00  0.3204E+01
    -11.859  0.3778E+00  0.3207E+01
    -11.852  0.3778E+00  0.3209E+01
    -11.846  0.3777E+00  0.3212E+01
    -11.839  0.3777E+00  0.3214E+01
    -11.832  0.3777E+00  0.3217E+01
    -11.826  0.3777E+00  0.3219E+01
    -11.819  0.3776E+00  0.3222E+01
    -11.812  0.3776E+00  0.3224E+01
    -11.806  0.3776E+00  0.3227E+01
    -11.799  0.3776E+00  0.3229E+01
    -11.792  0.3776E+00  0.3232E+01
    -11.786  0.3775E+00  0.3234E+01
    -11.779  0.3775E+00  0.3237E+01
    -11.772  0.3775E+00  0.3239E+01
    -11.766  0.3775E+00  0.3242E+01
    -11.759  0.3773E+00  0.3245E+01
    -11.752  0.3770E+00  0.3247E+01
    -11.746  0.3767E+00  0.3250E+01
    -11.739  0.3764E+00  0.3252E+01
    -11.732  0.3761E+00  0.3255E+01
    -11.726  0.3758E+00  0.3257E+01
    -11.719  0.3755E+00  0.3260E+01
    -11.712  0.3752E+00  0.3262E+01
    -11.706  0.3749E+00  0.3265E+01
    -11.699  0.3747E+00  0.3267E+01
    -11.692  0.3744E+00  0.3270E+01
    -11.686  0.3741E+00  0.3272E+01
    -11.679  0.3738E+00  0.3275E+01
    -11.672  0.3735E+00  0.3277E+01
    -11.666  0.3732E+00  0.3280E+01
    -11.659  0.3729E+00  0.3282E+01
    -11.652  0.3726E+00  0.3285E+01
    -11.646  0.3728E+00  0.3287E+01
    -11.639  0.3730E+00  0.3290E+01
    -11.632  0.3732E+00  0.3292E+01
    -11.626  0.3735E+00  0.3294E+01
    -11.619  0.3737E+00  0.3297E+01
    -11.612  0.3739E+00  0.3299E+01
    -11.606  0.3741E+00  0.3302E+01
    -11.599  0.3744E+00  0.3304E+01
    -11.592  0.3746E+00  0.3307E+01
    -11.586  0.3748E+00  0.3309E+01
    -11.579  0.3750E+00  0.3312E+01
    -11.572  0.3752E+00  0.3314E+01
    -11.566  0.3755E+00  0.3317E+01
    -11.559  0.3757E+00  0.3319E+01
    -11.552  0.3759E+00  0.3322E+01
    -11.546  0.3761E+00  0.3324E+01
    -11.539  0.3764E+00  0.3327E+01
    -11.532  0.3766E+00  0.3329E+01
    -11.526  0.3768E+00  0.3332E+01
    -11.519  0.3770E+00  0.3335E+01
    -11.512  0.3772E+00  0.3337E+01
    -11.506  0.3775E+00  0.3340E+01
    -11.499  0.3777E+00  0.3342E+01
    -11.492  0.3779E+00  0.3345E+01
    -11.485  0.3781E+00  0.3347E+01
    -11.479  0.3784E+00  0.3350E+01
    -11.472  0.3786E+00  0.3352E+01
    -11.465  0.3788E+00  0.3355E+01
    -11.459  0.3790E+00  0.3357E+01
    -11.452  0.3793E+00  0.3360E+01
    -11.445  0.3795E+00  0.3362E+01
    -11.439  0.3797E+00  0.3365E+01
    -11.432  0.3799E+00  0.3367E+01
    -11.425  0.3801E+00  0.3370E+01
    -11.419  0.3804E+00  0.3372E+01
    -11.412  0.3806E+00  0.3375E+01
    -11.405  0.3808E+00  0.3377E+01
    -11.399  0.3810E+00  0.3380E+01
    -11.392  0.3813E+00  0.3383E+01
    -11.385  0.3815E+00  0.3385E+01
    -11.379  0.3817E+00  0.3388E+01
    -11.372  0.3819E+00  0.3390E+01
    -11.365  0.3821E+00  0.3393E+01
    -11.359  0.3824E+00  0.3395E+01
    -11.352  0.3826E+00  0.3398E+01
    -11.345  0.3828E+00  0.3400E+01
    -11.339  0.3830E+00  0.3403E+01
    -11.332  0.3833E+00  0.3406E+01
    -11.325  0.3835E+00  0.3408E+01
    -11.319  0.3837E+00  0.3411E+01
    -11.312  0.3839E+00  0.3413E+01
    -11.305  0.3841E+00  0.3416E+01
    -11.299  0.3844E+00  0.3418E+01
    -11.292  0.3846E+00  0.3421E+01
    -11.285  0.3848E+00  0.3423E+01
    -11.279  0.3850E+00  0.3426E+01
    -11.272  0.3853E+00  0.3429E+01
    -11.265  0.3855E+00  0.3431E+01
    -11.259  0.3857E+00  0.3434E+01
    -11.252  0.3859E+00  0.3436E+01
    -11.245  0.3861E+00  0.3439E+01
    -11.239  0.3864E+00  0.3441E+01
    -11.232  0.3866E+00  0.3444E+01
    -11.225  0.3868E+00  0.3447E+01
    -11.219  0.3870E+00  0.3449E+01
    -11.212  0.3873E+00  0.3452E+01
    -11.205  0.3875E+00  0.3454E+01
    -11.199  0.3877E+00  0.3457E+01
    -11.192  0.3879E+00  0.3460E+01
    -11.185  0.3882E+00  0.3462E+01
    -11.179  0.3887E+00  0.3465E+01
    -11.172  0.3892E+00  0.3467E+01
    -11.165  0.3898E+00  0.3470E+01
    -11.159  0.3903E+00  0.3472E+01
    -11.152  0.3908E+00  0.3475E+01
    -11.145  0.3913E+00  0.3478E+01
    -11.139  0.3919E+00  0.3480E+01
    -11.132  0.3924E+00  0.3483E+01
    -11.125  0.3929E+00  0.3486E+01
    -11.119  0.3935E+00  0.3488E+01
    -11.112  0.3940E+00  0.3491E+01
    -11.105  0.3945E+00  0.3493E+01
    -11.099  0.3950E+00  0.3496E+01
    -11.092  0.3956E+00  0.3499E+01
    -11.085  0.3962E+00  0.3501E+01
    -11.079  0.3968E+00  0.3504E+01
    -11.072  0.3974E+00  0.3507E+01
    -11.065  0.3981E+00  0.3509E+01
    -11.059  0.3987E+00  0.3512E+01
    -11.052  0.3993E+00  0.3515E+01
    -11.045  0.4000E+00  0.3517E+01
    -11.039  0.4006E+00  0.3520E+01
    -11.032  0.4012E+00  0.3523E+01
    -11.025  0.4019E+00  0.3525E+01
    -11.019  0.4025E+00  0.3528E+01
    -11.012  0.4031E+00  0.3531E+01
    -11.005  0.4038E+00  0.3533E+01
    -10.999  0.4044E+00  0.3536E+01
    -10.992  0.4050E+00  0.3539E+01
    -10.985  0.4056E+00  0.3541E+01
    -10.979  0.4063E+00  0.3544E+01
    -10.972  0.4069E+00  0.3547E+01
    -10.965  0.4074E+00  0.3550E+01
    -10.959  0.4080E+00  0.3552E+01
    -10.952  0.4084E+00  0.3555E+01
    -10.945  0.4085E+00  0.3558E+01
    -10.939  0.4087E+00  0.3560E+01
    -10.932  0.4088E+00  0.3563E+01
    -10.925  0.4090E+00  0.3566E+01
    -10.919  0.4092E+00  0.3569E+01
    -10.912  0.4093E+00  0.3571E+01
    -10.905  0.4095E+00  0.3574E+01
    -10.899  0.4096E+00  0.3577E+01
    -10.892  0.4098E+00  0.3580E+01
    -10.885  0.4100E+00  0.3582E+01
    -10.879  0.4101E+00  0.3585E+01
    -10.872  0.4103E+00  0.3588E+01
    -10.865  0.4105E+00  0.3590E+01
    -10.859  0.4106E+00  0.3593E+01
    -10.852  0.4108E+00  0.3596E+01
    -10.845  0.4109E+00  0.3599E+01
    -10.839  0.4111E+00  0.3601E+01
    -10.832  0.4113E+00  0.3604E+01
    -10.825  0.4114E+00  0.3607E+01
    -10.819  0.4116E+00  0.3610E+01
    -10.812  0.4117E+00  0.3612E+01
    -10.805  0.4119E+00  0.3615E+01
    -10.799  0.4121E+00  0.3618E+01
    -10.792  0.4122E+00  0.3621E+01
    -10.785  0.4124E+00  0.3623E+01
    -10.779  0.4125E+00  0.3626E+01
    -10.772  0.4127E+00  0.3629E+01
    -10.765  0.4129E+00  0.3632E+01
    -10.759  0.4130E+00  0.3634E+01
    -10.752  0.4132E+00  0.3637E+01
    -10.745  0.4133E+00  0.3640E+01
    -10.739  0.4135E+00  0.3643E+01
    -10.732  0.4137E+00  0.3645E+01
    -10.725  0.4138E+00  0.3648E+01
    -10.719  0.4140E+00  0.3651E+01
    -10.712  0.4141E+00  0.3654E+01
    -10.705  0.4143E+00  0.3656E+01
    -10.699  0.4145E+00  0.3659E+01
    -10.692  0.4146E+00  0.3662E+01
    -10.685  0.4148E+00  0.3665E+01
    -10.679  0.4150E+00  0.3668E+01
    -10.672  0.4151E+00  0.3670E+01
    -10.665  0.4153E+00  0.3673E+01
    -10.659  0.4154E+00  0.3676E+01
    -10.652  0.4156E+00  0.3679E+01
    -10.645  0.4158E+00  0.3681E+01
    -10.639  0.4159E+00  0.3684E+01
    -10.632  0.4161E+00  0.3687E+01
    -10.625  0.4162E+00  0.3690E+01
    -10.619  0.4164E+00  0.3693E+01
    -10.612  0.4166E+00  0.3695E+01
    -10.605  0.4167E+00  0.3698E+01
    -10.599  0.4169E+00  0.3701E+01
    -10.592  0.4170E+00  0.3704E+01
    -10.585  0.4172E+00  0.3706E+01
    -10.579  0.4174E+00  0.3709E+01
    -10.572  0.4175E+00  0.3712E+01
    -10.565  0.4177E+00  0.3715E+01
    -10.559  0.4178E+00  0.3718E+01
    -10.552  0.4180E+00  0.3720E+01
    -10.545  0.4182E+00  0.3723E+01
    -10.539  0.4183E+00  0.3726E+01
    -10.532  0.4185E+00  0.3729E+01
    -10.525  0.4362E+00  0.3732E+01
    -10.519  0.4365E+00  0.3734E+01
    -10.512  0.4367E+00  0.3737E+01
    -10.505  0.4369E+00  0.3740E+01
    -10.498  0.4371E+00  0.3743E+01
    -10.492  0.4373E+00  0.3746E+01
    -10.485  0.4375E+00  0.3749E+01
    -10.478  0.4377E+00  0.3752E+01
    -10.472  0.4379E+00  0.3755E+01
    -10.465  0.4381E+00  0.3758E+01
    -10.458  0.4383E+00  0.3761E+01
    -10.452  0.4385E+00  0.3764E+01
    -10.445  0.4387E+00  0.3767E+01
    -10.438  0.4389E+00  0.3769E+01
    -10.432  0.4391E+00  0.3772E+01
    -10.425  0.4393E+00  0.3775E+01
    -10.418  0.4395E+00  0.3778E+01
    -10.412  0.4397E+00  0.3781E+01
    -10.405  0.4399E+00  0.3784E+01
    -10.398  0.4401E+00  0.3787E+01
    -10.392  0.4403E+00  0.3790E+01
    -10.385  0.4405E+00  0.3793E+01
    -10.378  0.4407E+00  0.3796E+01
    -10.372  0.4409E+00  0.3799E+01
    -10.365  0.4411E+00  0.3802E+01
    -10.358  0.4413E+00  0.3805E+01
    -10.352  0.4415E+00  0.3808E+01
    -10.345  0.4417E+00  0.3811E+01
    -10.338  0.4419E+00  0.3814E+01
    -10.332  0.4421E+00  0.3816E+01
    -10.325  0.4423E+00  0.3819E+01
    -10.318  0.4425E+00  0.3822E+01
    -10.312  0.4427E+00  0.3825E+01
    -10.305  0.4429E+00  0.3828E+01
    -10.298  0.4431E+00  0.3831E+01
    -10.292  0.4433E+00  0.3834E+01
    -10.285  0.4435E+00  0.3837E+01
    -10.278  0.4437E+00  0.3840E+01
    -10.272  0.4439E+00  0.3843E+01
    -10.265  0.4441E+00  0.3846E+01
    -10.258  0.4443E+00  0.3849E+01
    -10.252  0.4445E+00  0.3852E+01
    -10.245  0.4447E+00  0.3855E+01
    -10.238  0.4449E+00  0.3858E+01
    -10.232  0.4451E+00  0.3861E+01
    -10.225  0.4453E+00  0.3864E+01
    -10.218  0.4455E+00  0.3867E+01
    -10.212  0.4457E+00  0.3870E+01
    -10.205  0.4459E+00  0.3873E+01
    -10.198  0.4461E+00  0.3876E+01
    -10.192  0.4463E+00  0.3879E+01
    -10.185  0.4465E+00  0.3882E+01
    -10.178  0.4467E+00  0.3885E+01
    -10.172  0.4469E+00  0.3888E+01
    -10.165  0.4328E+00  0.3891E+01
    -10.158  0.4331E+00  0.3893E+01
    -10.152  0.4334E+00  0.3896E+01
    -10.145  0.4336E+00  0.3899E+01
    -10.138  0.4339E+00  0.3902E+01
    -10.132  0.4342E+00  0.3905E+01
    -10.125  0.4344E+00  0.3908E+01
    -10.118  0.4347E+00  0.3911E+01
    -10.112  0.4350E+00  0.3914E+01
    -10.105  0.4353E+00  0.3917E+01
    -10.098  0.4357E+00  0.3919E+01
    -10.092  0.4361E+00  0.3922E+01
    -10.085  0.4365E+00  0.3925E+01
    -10.078  0.4368E+00  0.3928E+01
    -10.072  0.4372E+00  0.3931E+01
    -10.065  0.4376E+00  0.3934E+01
    -10.058  0.4380E+00  0.3937E+01
    -10.052  0.4384E+00  0.3940E+01
    -10.045  0.4387E+00  0.3943E+01
    -10.038  0.4391E+00  0.3946E+01
    -10.032  0.4395E+00  0.3949E+01
    -10.025  0.4399E+00  0.3952E+01
    -10.018  0.4402E+00  0.3955E+01
    -10.012  0.4406E+00  0.3957E+01
    -10.005  0.4410E+00  0.3960E+01
     -9.998  0.4414E+00  0.3963E+01
     -9.992  0.4418E+00  0.3966E+01
     -9.985  0.4421E+00  0.3969E+01
     -9.978  0.4425E+00  0.3972E+01
     -9.972  0.4429E+00  0.3975E+01
     -9.965  0.4433E+00  0.3978E+01
     -9.958  0.4437E+00  0.3981E+01
     -9.952  0.4440E+00  0.3984E+01
     -9.945  0.4444E+00  0.3987E+01
     -9.938  0.4448E+00  0.3990E+01
     -9.932  0.4452E+00  0.3993E+01
     -9.925  0.4455E+00  0.3996E+01
     -9.918  0.4459E+00  0.3999E+01
     -9.912  0.4463E+00  0.4002E+01
     -9.905  0.4467E+00  0.4005E+01
     -9.898  0.4471E+00  0.4008E+01
     -9.892  0.4474E+00  0.4011E+01
     -9.885  0.4478E+00  0.4014E+01
     -9.878  0.4482E+00  0.4017E+01
     -9.872  0.4781E+00  0.4020E+01
     -9.865  0.5019E+00  0.4023E+01
     -9.858  0.5256E+00  0.4027E+01
     -9.852  0.5493E+00  0.4030E+01
     -9.845  0.5731E+00  0.4034E+01
     -9.838  0.5968E+00  0.4038E+01
     -9.832  0.6205E+00  0.4042E+01
     -9.825  0.6443E+00  0.4046E+01
     -9.818  0.6680E+00  0.4050E+01
     -9.812  0.6917E+00  0.4055E+01
     -9.805  0.7155E+00  0.4060E+01
     -9.798  0.7392E+00  0.4064E+01
     -9.792  0.7629E+00  0.4069E+01
     -9.785  0.7867E+00  0.4075E+01
     -9.778  0.8104E+00  0.4080E+01
     -9.772  0.8341E+00  0.4085E+01
     -9.765  0.8579E+00  0.4091E+01
     -9.758  0.8816E+00  0.4097E+01
     -9.752  0.9053E+00  0.4103E+01
     -9.745  0.7064E+00  0.4108E+01
     -9.738  0.7096E+00  0.4113E+01
     -9.732  0.7129E+00  0.4118E+01
     -9.725  0.7161E+00  0.4122E+01
     -9.718  0.7194E+00  0.4127E+01
     -9.712  0.7227E+00  0.4132E+01
     -9.705  0.7261E+00  0.4137E+01
     -9.698  0.7296E+00  0.4142E+01
     -9.692  0.7331E+00  0.4146E+01
     -9.685  0.7366E+00  0.4151E+01
     -9.678  0.7402E+00  0.4156E+01
     -9.672  0.7437E+00  0.4161E+01
     -9.665  0.7472E+00  0.4166E+01
     -9.658  0.7507E+00  0.4171E+01
     -9.652  0.7540E+00  0.4176E+01
     -9.645  0.7569E+00  0.4181E+01
     -9.638  0.7598E+00  0.4186E+01
     -9.632  0.7627E+00  0.4191E+01
     -9.625  0.7657E+00  0.4196E+01
     -9.618  0.7686E+00  0.4202E+01
     -9.612  0.7715E+00  0.4207E+01
     -9.605  0.7744E+00  0.4212E+01
     -9.598  0.7773E+00  0.4217E+01
     -9.592  0.7803E+00  0.4222E+01
     -9.585  0.7832E+00  0.4227E+01
     -9.578  0.7861E+00  0.4233E+01
     -9.572  0.7890E+00  0.4238E+01
     -9.565  0.7920E+00  0.4243E+01
     -9.558  0.7949E+00  0.4249E+01
     -9.552  0.7978E+00  0.4254E+01
     -9.545  0.8007E+00  0.4259E+01
     -9.538  0.8036E+00  0.4265E+01
     -9.532  0.8066E+00  0.4270E+01
     -9.525  0.8095E+00  0.4275E+01
     -9.518  0.8124E+00  0.4281E+01
     -9.512  0.8153E+00  0.4286E+01
     -9.505  0.8183E+00  0.4292E+01
     -9.498  0.8208E+00  0.4297E+01