    2    2    1    1
  0.3943865E+02  0.2464138E-09  0.2464138E-09  0.1500000E-08  0.5000000E-15
   1.0000000000000000E-004
  CAR 
 C                                       
      8     27     16

  0.3742002E-15  0.3742002E-15  0.1262379E-14  0.4444444E-02
    1      -21.779916   1.000000
    2       -9.875126   1.000000
    3       -5.269757   1.000000
    4       -5.269701   1.000000
    5        1.008492   0.000000
    6        1.913497   0.000000
    7        2.436240   0.000000
    8        4.334583   0.000000
    9        5.092980   0.000000
   10        6.119193   0.000000
   11        6.119259   0.000000
   12        8.232214   0.000000
   13        9.237562   0.000000
   14        9.348395   0.000000
   15       10.298884   0.000000
   16       13.556993   0.000000

  0.6666667E-01  0.3747003E-15  0.1262379E-14  0.2666667E-01
    1      -21.674724   1.000000
    2       -9.749061   1.000000
    3       -5.696216   1.000000
    4       -5.492787   1.000000
    5        1.151339   0.000000
    6        2.057654   0.000000
    7        2.581707   0.000000
    8        4.477855   0.000000
    9        5.232462   0.000000
   10        6.171475   0.000000
   11        6.573618   0.000000
   12        8.371327   0.000000
   13        8.870370   0.000000
   14        9.492822   0.000000
   15       10.492689   0.000000
   16       13.685716   0.000000

  0.1333333E+00  0.3747003E-15  0.1262379E-14  0.2666667E-01
    1      -21.359874   1.000000
    2       -9.374345   1.000000
    3       -6.826749   1.000000
    4       -6.058160   1.000000
    5        1.579962   0.000000
    6        2.489231   0.000000
    7        3.018183   0.000000
    8        4.906259   0.000000
    9        5.644383   0.000000
   10        6.201219   0.000000
   11        7.819659   0.000000
   12        7.849382   0.000000
   13        8.787995   0.000000
   14        9.921869   0.000000
   15       11.121763   0.000000
   16       14.060552   0.000000

  0.2000000E+00  0.3885781E-15  0.1262379E-14  0.2666667E-01
    1      -20.837649   1.000000
    2       -8.757332   1.000000
    3       -8.378064   1.000000
    4       -6.764395   1.000000
    5        2.293767   0.000000
    6        3.205379   0.000000
    7        3.745435   0.000000
    8        5.607756   0.000000
    9        5.976074   0.000000
   10        6.369196   0.000000
   11        6.431309   0.000000
   12        9.475116   0.000000
   13        9.637951   0.000000
   14       10.628558   0.000000
   15       12.129024   0.000000
   16       14.643474   0.000000

  0.2666667E+00  0.3885781E-15  0.1262379E-14  0.2666667E-01
    1      -20.112356   1.000000
    2      -10.112745   1.000000
    3       -7.913755   1.000000
    4       -7.451608   1.000000
    5        3.290532   0.000000
    6        4.143204   0.000000
    7        4.636638   0.000000
    8        4.761242   0.000000
    9        5.754035   0.000000
   10        6.629209   0.000000
   11        7.398736   0.000000
   12       10.420391   0.000000
   13       11.609496   0.000000
   14       11.799606   0.000000
   15       13.217731   0.000000
   16       15.274190   0.000000

  0.3333333E+00  0.3608225E-15  0.1262379E-14  0.2666667E-01
    1      -19.191511   1.000000
    2      -11.878744   1.000000
    3       -8.022315   1.000000
    4       -6.875243   1.000000
    5        2.682078   0.000000
    6        4.561134   0.000000
    7        5.490710   0.000000
    8        5.521482   0.000000
    9        6.085322   0.000000
   10        7.897913   0.000000
   11        8.674244   0.000000
   12       11.586752   0.000000
   13       12.855297   0.000000
   14       13.603412   0.000000
   15       14.103630   0.000000
   16       15.038902   0.000000

  0.4000000E+00  0.4163336E-15  0.1262379E-14  0.2666667E-01
    1      -18.091526   1.000000
    2      -13.578159   1.000000
    3       -8.424680   1.000000
    4       -5.729948   1.000000
    5        0.930983   0.000000
    6        5.263181   0.000000
    7        6.148589   0.000000
    8        7.077228   0.000000
    9        7.676819   0.000000
   10        9.429266   0.000000
   11       10.227894   0.000000
   12       12.141991   0.000000
   13       12.641105   0.000000
   14       13.490182   0.000000
   15       14.128082   0.000000
   16       14.365980   0.000000

  0.4666667E+00  0.4163336E-15  0.1262379E-14  0.2666667E-01
    1      -16.890432   1.000000
    2      -15.088745   1.000000
    3       -8.632244   1.000000
    4       -4.771452   1.000000
    5       -0.350882   0.000000
    6        5.166545   0.000000
    7        7.954991   0.000000
    8        8.890031   0.000000
    9        9.558924   0.000000
   10       10.008298   0.000000
   11       10.845708   0.000000
   12       11.292797   0.000000
   13       11.723324   0.000000
   14       12.045435   0.000000
   15       13.138437   0.000000
   16       14.063140   0.000000

  0.6666667E-01  0.6666667E-01  0.1262379E-14  0.2666667E-01
    1      -21.464699   1.000000
    2       -9.498760   1.000000
    3       -6.421788   1.000000
    4       -5.939661   1.000000
    5        1.437163   0.000000
    6        2.345528   0.000000
    7        2.872726   0.000000
    8        4.763762   0.000000
    9        5.511714   0.000000
   10        6.350560   0.000000
   11        7.250059   0.000000
   12        8.180079   0.000000
   13        8.648006   0.000000
   14        9.780183   0.000000
   15       10.940200   0.000000
   16       13.936233   0.000000

  0.1333333E+00  0.6666667E-01  0.1262379E-14  0.5333333E-01
    1      -21.046178   1.000000
    2       -9.002536   1.000000
    3       -7.674798   1.000000
    4       -6.666432   1.000000
    5        2.008670   0.000000
    6        2.919953   0.000000
    7        3.454812   0.000000
    8        5.333142   0.000000
    9        6.055501   0.000000
   10        6.508471   0.000000
   11        6.945317   0.000000
   12        8.424682   0.000000
   13        9.196948   0.000000
   14       10.349493   0.000000
   15       11.930188   0.000000
   16       14.406646   0.000000

  0.2000000E+00  0.6666667E-01  0.1262379E-14  0.5333333E-01
    1      -20.422418   1.000000
    2       -9.258121   1.000000
    3       -8.270979   1.000000
    4       -7.423104   1.000000
    5        2.864644   0.000000
    6        3.773387   0.000000
    7        4.327442   0.000000
    8        5.340476   0.000000
    9        6.199527   0.000000
   10        6.302772   0.000000
   11        6.988411   0.000000
   12       10.007048   0.000000
   13       10.078770   0.000000
   14       11.196977   0.000000
   15       13.293012   0.000000
   16       14.975564   0.000000

  0.2666667E+00  0.6666667E-01  0.1262379E-14  0.5333333E-01
    1      -19.599201   1.000000
    2      -10.977681   1.000000
    3       -8.083837   1.000000
    4       -7.325426   1.000000
    5        3.525515   0.000000
    6        4.001807   0.000000
    7        4.948804   0.000000
    8        5.485656   0.000000
    9        6.087186   0.000000
   10        7.324651   0.000000
   11        8.108373   0.000000
   12       11.047041   0.000000
   13       11.884084   0.000000
   14       12.329592   0.000000
   15       14.586989   0.000000
   16       15.080190   0.000000

  0.3333333E+00  0.6666667E-01  0.1262379E-14  0.5333333E-01
    1      -18.587460   1.000000
    2      -12.696446   1.000000
    3       -8.586382   1.000000
    4       -6.217158   1.000000
    5        1.733272   0.000000
    6        5.397211   0.000000
    7        5.866620   0.000000
    8        6.358790   0.000000
    9        6.952644   0.000000
   10        8.718387   0.000000
   11        9.522411   0.000000
   12       12.178627   0.000000
   13       12.770685   0.000000
   14       13.691756   0.000000
   15       14.137557   0.000000
   16       14.904068   0.000000

  0.4000000E+00  0.6666667E-01  0.1262379E-14  0.5333333E-01
    1      -17.417582   1.000000
    2      -14.313710   1.000000
    3       -8.897943   1.000000
    4       -5.099330   1.000000
    5        0.164034   0.000000
    6        5.674269   0.000000
    7        7.121846   0.000000
    8        8.036151   0.000000
    9        8.691126   0.000000
   10       10.322334   0.000000
   11       11.116954   0.000000
   12       11.235420   0.000000
   13       11.958725   0.000000
   14       12.997529   0.000000
   15       13.487533   0.000000
   16       14.650867   0.000000

  0.4666667E+00  0.6666667E-01  0.1262379E-14  0.2666667E-01
    1      -16.461156   1.000000
    2      -15.422823   1.000000
    3       -9.003714   1.000000
    4       -4.510240   1.000000
    5       -0.583173   0.000000
    6        5.623347   0.000000
    7        8.972555   0.000000
    8        9.130418   0.000000
    9        9.758205   0.000000
   10       10.110059   0.000000
   11       10.702535   0.000000
   12       10.727928   0.000000
   13       11.899660   0.000000
   14       12.537090   0.000000
   15       13.079390   0.000000
   16       13.165202   0.000000

  0.1333333E+00  0.1333333E+00  0.1262379E-14  0.2666667E-01
    1      -20.526120   1.000000
    2       -8.776024   1.000000
    3       -8.390872   1.000000
    4       -7.629893   1.000000
    5        2.722804   0.000000
    6        3.635477   0.000000
    7        4.182654   0.000000
    8        5.642400   0.000000
    9        6.041763   0.000000
   10        6.755121   0.000000
   11        7.206249   0.000000
   12        8.802195   0.000000
   13        9.861911   0.000000
   14       11.056903   0.000000
   15       13.424673   0.000000
   16       14.832341   0.000000

  0.2000000E+00  0.1333333E+00  0.1262379E-14  0.5333333E-01
    1      -19.804405   1.000000
    2      -10.171328   1.000000
    3       -8.535960   1.000000
    4       -7.553792   1.000000
    5        3.720134   0.000000
    6        4.073315   0.000000
    7        4.640398   0.000000
    8        5.200908   0.000000
    9        7.024526   0.000000
   10        7.329935   0.000000
   11        7.858604   0.000000
   12        9.866123   0.000000
   13       10.743486   0.000000
   14       12.037987   0.000000
   15       14.728018   0.000000
   16       15.099954   0.000000

  0.2666667E+00  0.1333333E+00  0.1262379E-14  0.5333333E-01
    1      -18.889407   1.000000
    2      -11.762299   1.000000
    3       -9.210133   1.000000
    4       -6.522933   1.000000
    5        2.399090   0.000000
    6        4.996014   0.000000
    7        5.906691   0.000000
    8        6.505639   0.000000
    9        7.209821   0.000000
   10        8.263441   0.000000
   11        9.100035   0.000000
   12       11.393593   0.000000
   13       11.667358   0.000000
   14       13.284000   0.000000
   15       14.036650   0.000000
   16       15.673887   0.000000

  0.3333333E+00  0.1333333E+00  0.1262379E-14  0.5333333E-01
    1      -17.798852   1.000000
    2      -13.374236   1.000000
    3       -9.654680   1.000000
    4       -5.377765   1.000000
    5        0.766625   0.000000
    6        6.529489   0.000000
    7        7.031256   0.000000
    8        7.425395   0.000000
    9        8.112271   0.000000
   10        9.687822   0.000000
   11       10.639589   0.000000
   12       11.971482   0.000000
   13       11.977198   0.000000
   14       13.905747   0.000000
   15       14.222924   0.000000
   16       14.736653   0.000000

  0.4000000E+00  0.1333333E+00  0.1262379E-14  0.5333333E-01
    1      -16.612935   1.000000
    2      -14.838262   1.000000
    3       -9.876340   1.000000
    4       -4.397283   1.000000
    5       -0.474342   0.000000
    6        6.897632   0.000000
    7        8.355844   0.000000
    8        9.076315   0.000000
    9        9.986412   0.000000
   10       10.343048   0.000000
   11       10.658075   0.000000
   12       11.698579   0.000000
   13       12.129894   0.000000
   14       12.429788   0.000000
   15       12.958028   0.000000
   16       14.237496   0.000000

  0.2000000E+00  0.2000000E+00  0.1262379E-14  0.2666667E-01
    1      -18.990705   1.000000
    2      -11.185790   1.000000
    3       -9.708551   1.000000
    4       -6.626684   1.000000
    5        2.673808   0.000000
    6        4.855958   0.000000
    7        5.747976   0.000000
    8        6.364230   0.000000
    9        8.103573   0.000000
   10        8.562262   0.000000
   11        9.022211   0.000000
   12        9.800012   0.000000
   13       11.460125   0.000000
   14       13.143217   0.000000
   15       13.845850   0.000000
   16       16.572388   0.000000

  0.2666667E+00  0.2000000E+00  0.1262379E-14  0.5333333E-01
    1      -17.994419   1.000000
    2      -12.469102   1.000000
    3      -10.528483   1.000000
    4       -5.532386   1.000000
    5        1.193801   0.000000
    6        6.263893   0.000000
    7        7.094642   0.000000
    8        7.813856   0.000000
    9        8.829265   0.000000
   10        9.322930   0.000000
   11       10.353731   0.000000
   12       10.938326   0.000000
   13       11.543182   0.000000
   14       14.089792   0.000000
   15       14.480404   0.000000
   16       15.366638   0.000000

  0.3333333E+00  0.2000000E+00  0.1262379E-14  0.5333333E-01
    1      -16.849556   1.000000
    2      -13.894661   1.000000
    3      -10.955566   1.000000
    4       -4.394854   1.000000
    5       -0.199015   0.000000
    6        7.918813   0.000000
    7        8.481939   0.000000
    8        8.690646   0.000000
    9        9.556303   0.000000
   10       10.231531   0.000000
   11       11.347876   0.000000
   12       11.920454   0.000000
   13       12.028402   0.000000
   14       13.605190   0.000000
   15       13.742011   0.000000
   16       14.538951   0.000000

  0.4000000E+00  0.2000000E+00  0.1262379E-14  0.2666667E-01
    1      -15.920904   1.000000
    2      -14.932731   1.000000
    3      -11.088728   1.000000
    4       -3.745409   1.000000
    5       -0.938618   0.000000
    6        8.610687   0.000000
    7        9.100098   0.000000
    8        9.676855   0.000000
    9        9.901616   0.000000
   10       10.976921   0.000000
   11       11.532894   0.000000
   12       11.577208   0.000000
   13       11.904902   0.000000
   14       13.402141   0.000000
   15       13.549928   0.000000
   16       13.874711   0.000000

  0.2666667E+00  0.2666667E+00  0.1262379E-14  0.2666667E-01
    1      -16.937453   1.000000
    2      -13.251967   1.000000
    3      -11.652123   1.000000
    4       -4.407360   1.000000
    5       -0.054723   0.000000
    6        7.785071   0.000000
    7        8.243647   0.000000
    8        9.401606   0.000000
    9       10.008382   0.000000
   10       10.471312   0.000000
   11       10.606906   0.000000
   12       11.838120   0.000000
   13       11.901036   0.000000
   14       14.837752   0.000000
   15       14.981854   0.000000
   16       15.150878   0.000000

  0.3333333E+00  0.2666667E+00  0.1262379E-14  0.5333333E-01
    1      -15.799924   1.000000
    2      -14.298175   1.000000
    3      -12.193302   1.000000
    4       -3.326121   1.000000
    5       -1.193056  -0.000001
    6        8.576975   0.000000
    7        9.480942   0.000000
    8       10.364827   0.000000
    9       11.006671   0.000000
   10       11.119915   0.000000
   11       11.295515   0.000000
   12       12.974751   0.000000
   13       13.158060   0.000000
   14       13.502906   0.000000
   15       13.606950   0.000000
   16       14.263139   0.000000

  0.3333333E+00  0.3333333E+00  0.1262379E-14  0.8888889E-02
    1      -14.845525   1.000000
    2      -14.845492   1.000000
    3      -12.807348   1.000000
    4       -2.239221   1.000000
    5       -2.239195   0.000007
    6        8.380903   0.000000
    7       10.674843   0.000000
    8       10.674900   0.000000
    9       11.267127   0.000000
   10       12.704682   0.000000
   11       12.705474   0.000000
   12       12.993000   0.000000
   13       12.995957   0.000000
   14       13.219487   0.000000
   15       13.574782   0.000000
   16       13.959559   0.000000
