Automatically generated mesh
      27
Reciprocal lattice
    0.00000000000000    0.00000000000000    0.00000000000000             1
    0.06666666666667    0.00000000000000    0.00000000000000             6
    0.13333333333333    0.00000000000000    0.00000000000000             6
    0.20000000000000    0.00000000000000    0.00000000000000             6
    0.26666666666667    0.00000000000000    0.00000000000000             6
    0.33333333333333    0.00000000000000    0.00000000000000             6
    0.40000000000000    0.00000000000000    0.00000000000000             6
    0.46666666666667    0.00000000000000    0.00000000000000             6
    0.06666666666667    0.06666666666667    0.00000000000000             6
    0.13333333333333    0.06666666666667    0.00000000000000            12
    0.20000000000000    0.06666666666667    0.00000000000000            12
    0.26666666666667    0.06666666666667    0.00000000000000            12
    0.33333333333333    0.06666666666667    0.00000000000000            12
    0.40000000000000    0.06666666666667    0.00000000000000            12
    0.46666666666667    0.06666666666667    0.00000000000000             6
    0.13333333333333    0.13333333333333    0.00000000000000             6
    0.20000000000000    0.13333333333333    0.00000000000000            12
    0.26666666666667    0.13333333333333    0.00000000000000            12
    0.33333333333333    0.13333333333333    0.00000000000000            12
    0.40000000000000    0.13333333333333    0.00000000000000            12
    0.20000000000000    0.20000000000000    0.00000000000000             6
    0.26666666666667    0.20000000000000    0.00000000000000            12
    0.33333333333333    0.20000000000000    0.00000000000000            12
    0.40000000000000    0.20000000000000    0.00000000000000             6
    0.26666666666667    0.26666666666667    0.00000000000000             6
    0.33333333333333    0.26666666666667    0.00000000000000            12
    0.33333333333333    0.33333333333333    0.00000000000000             2
Tetrahedra
       118    0.00074074074074
        12         2         2         2         9
        12         1         2         2         2
         6         1         1         2         2
         6         2         2         9         9
        12         3         9         9        10
        12         2         3         9         9
        12         2         2         3         9
        12         3         9        10        10
        12         3         3         9        10
        12         2         3         3         9
        12         4        10        10        11
        12         3         4        10        10
        12         3         3         4        10
        12         4        10        11        11
        12         4         4        10        11
        12         3         4         4        10
        12         5        11        11        12
        12         4         5        11        11
        12         4         4         5        11
        12         5        11        12        12
        12         5         5        11        12
        12         4         5         5        11
        12         6        12        12        13
        12         5         6        12        12
        12         5         5         6        12
        12         6        12        13        13
        12         6         6        12        13
        12         5         6         6        12
        12         7        13        13        14
        12         6         7        13        13
        12         6         6         7        13
        12         7        13        14        14
        12         7         7        13        14
        12         6         7         7        13
        12         8        14        14        15
        12         7         8        14        14
        12         7         7         8        14
        12         8        14        15        15
        12         8         8        14        15
        12         7         8         8        14
         6         8         8        15        15
        12         8         8         8        15
        12        10        10        10        16
        12         9        10        10        10
         6         9         9        10        10
         6        10        10        16        16
        12        11        16        16        17
        12        10        11        16        16
        12        10        10        11        16
        12        11        16        17        17
        12        11        11        16        17
        12        10        11        11        16
        12        12        17        17        18
        12        11        12        17        17
        12        11        11        12        17
        12        12        17        18        18
        12        12        12        17        18
        12        11        12        12        17
        12        13        18        18        19
        12        12        13        18        18
        12        12        12        13        18
        12        13        18        19        19
        12        13        13        18        19
        12        12        13        13        18
        12        14        19        19        20
        12        13        14        19        19
        12        13        13        14        19
        12        14        19        20        20
        12        14        14        19        20
        12        13        14        14        19
        12        15        20        20        20
        12        14        15        20        20
        12        14        14        15        20
         6        15        15        20        20
        12        14        15        15        20
        12        17        17        17        21
        12        16        17        17        17
         6        16        16        17        17
         6        17        17        21        21
        12        18        21        21        22
        12        17        18        21        21
        12        17        17        18        21
        12        18        21        22        22
        12        18        18        21        22
        12        17        18        18        21
        12        19        22        22        23
        12        18        19        22        22
        12        18        18        19        22
        12        19        22        23        23
        12        19        19        22        23
        12        18        19        19        22
        12        20        23        23        24
        12        19        20        23        23
        12        19        19        20        23
        12        20        23        24        24
        12        20        20        23        24
        12        19        20        20        23
         6        20        20        24        24
        12        20        20        20        24
        12        22        22        22        25
        12        21        22        22        22
         6        21        21        22        22
         6        22        22        25        25
        12        23        25        25        26
        12        22        23        25        25
        12        22        22        23        25
        12        23        25        26        26
        12        23        23        25        26
        12        22        23        23        25
        12        24        26        26        26
        12        23        24        26        26
        12        23        23        24        26
         6        24        24        26        26
        12        23        24        24        26
        24        26        26        26        27
        12        25        26        26        26
         6        25        25        26        26
        12        26        26        27        27
