       N       E                     dE             d eps       ncg     rms          rms(c)
DAV:   1     0.259100582919E+02    0.25910E+02   -0.28577E+03   888   0.301E+02
DAV:   2    -0.178761083804E+02   -0.43786E+02   -0.42646E+02  1256   0.983E+01
DAV:   3    -0.197142361734E+02   -0.18381E+01   -0.18330E+01  1088   0.198E+01
DAV:   4    -0.197317170858E+02   -0.17481E-01   -0.17480E-01  1040   0.236E+00
DAV:   5    -0.197320056244E+02   -0.28854E-03   -0.28855E-03  1144   0.252E-01    0.637E+00
DAV:   6    -0.188218258619E+02    0.91018E+00   -0.62128E-01  1056   0.334E+00    0.376E+00
DAV:   7    -0.184690692866E+02    0.35276E+00   -0.91470E-01  1152   0.403E+00    0.998E-01
DAV:   8    -0.184618447407E+02    0.72245E-02   -0.24636E-02  1160   0.680E-01    0.202E-01
DAV:   9    -0.184616470528E+02    0.19769E-03   -0.49137E-04  1024   0.107E-01    0.112E-01
DAV:  10    -0.184594282671E+02    0.22188E-02   -0.28038E-03   960   0.173E-01    0.967E-02
DAV:  11    -0.184593845417E+02    0.43725E-04   -0.14393E-04  1024   0.472E-02    0.291E-02
DAV:  12    -0.184597892177E+02   -0.40468E-03   -0.10356E-04   928   0.427E-02    0.377E-02
DAV:  13    -0.184601594043E+02   -0.37019E-03   -0.35121E-05  1000   0.201E-02    0.930E-03
DAV:  14    -0.184605700254E+02   -0.41062E-03   -0.52676E-05  1016   0.196E-02    0.124E-02
DAV:  15    -0.184606639267E+02   -0.93901E-04   -0.39630E-06  1016   0.597E-03    0.143E-03
DAV:  16    -0.184606774988E+02   -0.13572E-04   -0.38658E-07  1000   0.233E-03    0.337E-03
DAV:  17    -0.184606822868E+02   -0.47880E-05   -0.10968E-07   928   0.136E-03    0.354E-04
DAV:  18    -0.184606824829E+02   -0.19610E-06   -0.27487E-09  1048   0.222E-04
   1 F= -.18460682E+02 E0= -.18460682E+02  d E =0.000000E+00
