written on  1Apr2018 at 07:24:10
          8
        729
   1    1    1    1    1    1    1    1    1    1    1    1    1    1    1
   1    1    1    1    1    1    1    1    1    1    1    1    1    1    1
   1    1    1    1    1    1    1    1    1    1    1    1    1    1    1
   1    1    1    1    1    1    1    1    1    1    1    1    1    1    1
   1    1    1    1    1    1    1    1    1    1    1    1    1    1    1
   1    1    1    1    1    1    1    1    1    1    1    1    1    1    1
   1    1    1    1    1    1    1    1    1    1    1    1    1    1    1
   1    1    1    1    1    1    1    1    1    1    1    1    1    1    1
   1    1    1    1    1    1    1    1    1    1    1    1    1    1    1
   1    1    1    1    1    1    1    1    1    1    1    1    1    1    1
   1    1    1    1    1    1    1    1    1    1    1    1    1    1    1
   1    1    1    1    1    1    1    1    1    1    1    1    1    1    1
   1    1    1    1    1    1    1    1    1    1    1    1    1    1    1
   1    1    1    1    1    1    1    1    1    1    1    1    1    1    1
   1    1    1    1    1    1    1    1    1    1    1    1    1    1    1
   1    1    1    1    1    1    1    1    1    1    1    1    1    1    1
   1    1    1    1    1    1    1    1    1    1    1    1    1    1    1
   1    1    1    1    1    1    1    1    1    1    1    1    1    1    1
   1    1    1    1    1    1    1    1    1    1    1    1    1    1    1
   1    1    1    1    1    1    1    1    1    1    1    1    1    1    1
   1    1    1    1    1    1    1    1    1    1    1    1    1    1    1
   1    1    1    1    1    1    1    1    1    1    1    1    1    1    1
   1    1    1    1    1    1    1    1    1    1    1    1    1    1    1
   1    1    1    1    1    1    1    1    1    1    1    1    1    1    1
   1    1    1    1    1    1    1    1    1    1    1    1    1    1    1
   1    1    1    1    1    1    1    1    1    1    1    1    1    1    1
   1    1    1    1    1    1    1    1    1    1    1    1    1    1    1
   1    1    1    1    1    1    1    1    1    1    1    1    1    1    1
   1    1    1    1    1    1    1    1    1    1    1    1    1    1    1
   1    1    1    1    1    1    1    1    1    1    1    1    1    1    1
   1    1    1    1    1    1    1    1    1    1    1    1    1    1    1
   1    1    1    1    1    1    1    1    1    1    1    1    1    1    1
   1    1    1    1    1    1    1    1    1    1    1    1    1    1    1
   1    1    1    1    1    1    1    1    1    1    1    1    1    1    1
   1    1    1    1    1    1    1    1    1    1    1    1    1    1    1
   1    1    1    1    1    1    1    1    1    1    1    1    1    1    1
   1    1    1    1    1    1    1    1    1    1    1    1    1    1    1
   1    1    1    1    1    1    1    1    1    1    1    1    1    1    1
   1    1    1    1    1    1    1    1    1    1    1    1    1    1    1
   1    1    1    1    1    1    1    1    1    1    1    1    1    1    1
   1    1    1    1    1    1    1    1    1    1    1    1    1    1    1
   1    1    1    1    1    1    1    1    1    1    1    1    1    1    1
   1    1    1    1    1    1    1    1    1    1    1    1    1    1    1
   1    1    1    1    1    1    1    1    1    1    1    1    1    1    1
   1    1    1    1    1    1    1    1    1    1    1    1    1    1    1
   1    1    1    1    1    1    1    1    1    1    1    1    1    1    1
   1    1    1    1    1    1    1    1    1    1    1    1    1    1    1
   1    1    1    1    1    1    1    1    1    1    1    1    1    1    1
   1    1    1    1    1    1    1    1    1
-4	-4	-4	1	1	-0.001318	0.000000
-4	-4	-4	2	1	0.000147	0.000000
-4	-4	-4	3	1	0.000152	-0.000022
-4	-4	-4	4	1	0.000149	0.000022
-4	-4	-4	5	1	0.000000	0.000000
-4	-4	-4	6	1	0.000022	0.000022
-4	-4	-4	7	1	-0.000022	0.000000
-4	-4	-4	8	1	0.000000	-0.000022
-4	-4	-4	1	2	-0.000147	0.000000
-4	-4	-4	2	2	0.000314	0.000000
-4	-4	-4	3	2	-0.000016	0.000000
-4	-4	-4	4	2	-0.000016	0.000000
-4	-4	-4	5	2	0.000022	0.000022
-4	-4	-4	6	2	0.000000	0.000000
-4	-4	-4	7	2	0.000022	0.000000
-4	-4	-4	8	2	0.000000	0.000022
-4	-4	-4	1	3	-0.000152	-0.000022
-4	-4	-4	2	3	-0.000016	0.000000
-4	-4	-4	3	3	0.000313	0.000000
-4	-4	-4	4	3	-0.000016	-0.000021
-4	-4	-4	5	3	-0.000022	0.000000
-4	-4	-4	6	3	-0.000022	0.000000
-4	-4	-4	7	3	0.000000	0.000000
-4	-4	-4	8	3	0.000000	0.000000
-4	-4	-4	1	4	-0.000149	0.000022
-4	-4	-4	2	4	-0.000016	0.000000
-4	-4	-4	3	4	-0.000016	0.000021
-4	-4	-4	4	4	0.000313	0.000000
-4	-4	-4	5	4	0.000000	-0.000022
-4	-4	-4	6	4	0.000000	-0.000022
-4	-4	-4	7	4	0.000000	0.000000
-4	-4	-4	8	4	0.000000	0.000000
-4	-4	-4	1	5	0.000000	0.000000
-4	-4	-4	2	5	-0.000022	0.000022
-4	-4	-4	3	5	0.000022	0.000000
-4	-4	-4	4	5	0.000000	-0.000022
-4	-4	-4	5	5	-0.001318	0.000000
-4	-4	-4	6	5	0.000147	0.000000
-4	-4	-4	7	5	0.000152	0.000022
-4	-4	-4	8	5	0.000149	-0.000022
-4	-4	-4	1	6	-0.000022	0.000022
-4	-4	-4	2	6	0.000000	0.000000
-4	-4	-4	3	6	-0.000022	0.000000
-4	-4	-4	4	6	0.000000	0.000022
-4	-4	-4	5	6	-0.000147	0.000000
-4	-4	-4	6	6	0.000314	0.000000
-4	-4	-4	7	6	-0.000016	0.000000
-4	-4	-4	8	6	-0.000016	0.000000
-4	-4	-4	1	7	0.000022	0.000000
-4	-4	-4	2	7	0.000022	0.000000
-4	-4	-4	3	7	0.000000	0.000000
-4	-4	-4	4	7	0.000000	0.000000
-4	-4	-4	5	7	-0.000152	0.000022
-4	-4	-4	6	7	-0.000016	0.000000
-4	-4	-4	7	7	0.000313	0.000000
-4	-4	-4	8	7	-0.000016	0.000021
-4	-4	-4	1	8	0.000000	-0.000022
-4	-4	-4	2	8	0.000000	-0.000022
-4	-4	-4	3	8	0.000000	0.000000
-4	-4	-4	4	8	0.000000	0.000000
-4	-4	-4	5	8	-0.000149	-0.000022
-4	-4	-4	6	8	-0.000016	0.000000
-4	-4	-4	7	8	-0.000016	-0.000021
-4	-4	-4	8	8	0.000313	0.000000
-4	-4	-3	1	1	-0.000761	0.000000
-4	-4	-3	2	1	0.000470	0.000000
-4	-4	-3	3	1	0.000003	0.000000
-4	-4	-3	4	1	0.000003	0.000000
-4	-4	-3	5	1	0.000000	0.000000
-4	-4	-3	6	1	-0.000002	-0.000002
-4	-4	-3	7	1	-0.000072	-0.000004
-4	-4	-3	8	1	-0.000003	-0.000072
-4	-4	-3	1	2	-0.000470	0.000000
-4	-4	-3	2	2	0.000281	0.000000
-4	-4	-3	3	2	-0.000079	0.000021
-4	-4	-3	4	2	-0.000079	-0.000021
-4	-4	-3	5	2	-0.000002	-0.000002
-4	-4	-3	6	2	0.000000	0.000000
-4	-4	-3	7	2	-0.000017	0.000010
-4	-4	-3	8	2	0.000010	-0.000017
-4	-4	-3	1	3	-0.000003	0.000000
-4	-4	-3	2	3	-0.000079	-0.000021
-4	-4	-3	3	3	0.000259	0.000000
-4	-4	-3	4	3	-0.000086	0.000041
-4	-4	-3	5	3	-0.000072	-0.000004
-4	-4	-3	6	3	0.000017	-0.000010
-4	-4	-3	7	3	0.000000	0.000000
-4	-4	-3	8	3	-0.000025	0.000025
-4	-4	-3	1	4	-0.000003	0.000000
-4	-4	-3	2	4	-0.000079	0.000021
-4	-4	-3	3	4	-0.000086	-0.000041
-4	-4	-3	4	4	0.000260	0.000000
-4	-4	-3	5	4	-0.000003	-0.000072
-4	-4	-3	6	4	-0.000010	0.000017
-4	-4	-3	7	4	0.000025	-0.000025
-4	-4	-3	8	4	0.000000	0.000000
-4	-4	-3	1	5	0.000000	0.000000
-4	-4	-3	2	5	0.000002	-0.000002
-4	-4	-3	3	5	0.000072	-0.000004
-4	-4	-3	4	5	0.000003	-0.000072
-4	-4	-3	5	5	-0.000761	0.000000
-4	-4	-3	6	5	0.000470	0.000000
-4	-4	-3	7	5	0.000003	0.000000
-4	-4	-3	8	5	0.000003	0.000000
-4	-4	-3	1	6	0.000002	-0.000002
-4	-4	-3	2	6	0.000000	0.000000
-4	-4	-3	3	6	0.000017	0.000010
-4	-4	-3	4	6	-0.000010	-0.000017
-4	-4	-3	5	6	-0.000470	0.000000
-4	-4	-3	6	6	0.000281	0.000000
-4	-4	-3	7	6	-0.000079	-0.000021
-4	-4	-3	8	6	-0.000079	0.000021
-4	-4	-3	1	7	0.000072	-0.000004
-4	-4	-3	2	7	-0.000017	-0.000010
-4	-4	-3	3	7	0.000000	0.000000
-4	-4	-3	4	7	0.000025	0.000025
-4	-4	-3	5	7	-0.000003	0.000000
-4	-4	-3	6	7	-0.000079	0.000021
-4	-4	-3	7	7	0.000259	0.000000
-4	-4	-3	8	7	-0.000086	-0.000041
-4	-4	-3	1	8	0.000003	-0.000072
-4	-4	-3	2	8	0.000010	0.000017
-4	-4	-3	3	8	-0.000025	-0.000025
-4	-4	-3	4	8	0.000000	0.000000
-4	-4	-3	5	8	-0.000003	0.000000
-4	-4	-3	6	8	-0.000079	-0.000021
-4	-4	-3	7	8	-0.000086	0.000041
-4	-4	-3	8	8	0.000260	0.000000
-4	-4	-2	1	1	-0.000580	0.000000
-4	-4	-2	2	1	0.000848	0.000000
-4	-4	-2	3	1	0.000043	0.000023
-4	-4	-2	4	1	0.000042	-0.000023
-4	-4	-2	5	1	0.000000	0.000000
-4	-4	-2	6	1	-0.000006	-0.000006
-4	-4	-2	7	1	-0.000153	0.000010
-4	-4	-2	8	1	0.000011	-0.000154
-4	-4	-2	1	2	-0.000848	0.000000
-4	-4	-2	2	2	0.000087	0.000000
-4	-4	-2	3	2	0.000040	0.000009
-4	-4	-2	4	2	0.000040	-0.000009
-4	-4	-2	5	2	-0.000006	-0.000006
-4	-4	-2	6	2	0.000000	0.000000
-4	-4	-2	7	2	-0.000031	-0.000007
-4	-4	-2	8	2	-0.000007	-0.000031
-4	-4	-2	1	3	-0.000043	0.000023
-4	-4	-2	2	3	0.000040	-0.000009
-4	-4	-2	3	3	0.000264	0.000000
-4	-4	-2	4	3	-0.000009	0.000092
-4	-4	-2	5	3	-0.000153	0.000010
-4	-4	-2	6	3	0.000031	0.000007
-4	-4	-2	7	3	0.000000	0.000000
-4	-4	-2	8	3	-0.000038	0.000039
-4	-4	-2	1	4	-0.000042	-0.000023
-4	-4	-2	2	4	0.000040	0.000009
-4	-4	-2	3	4	-0.000009	-0.000092
-4	-4	-2	4	4	0.000264	0.000000
-4	-4	-2	5	4	0.000011	-0.000154
-4	-4	-2	6	4	0.000007	0.000031
-4	-4	-2	7	4	0.000038	-0.000039
-4	-4	-2	8	4	0.000000	0.000000
-4	-4	-2	1	5	0.000000	0.000000
-4	-4	-2	2	5	0.000006	-0.000006
-4	-4	-2	3	5	0.000153	0.000010
-4	-4	-2	4	5	-0.000011	-0.000154
-4	-4	-2	5	5	-0.000580	0.000000
-4	-4	-2	6	5	0.000848	0.000000
-4	-4	-2	7	5	0.000043	-0.000023
-4	-4	-2	8	5	0.000042	0.000023
-4	-4	-2	1	6	0.000006	-0.000006
-4	-4	-2	2	6	0.000000	0.000000
-4	-4	-2	3	6	0.000031	-0.000007
-4	-4	-2	4	6	0.000007	-0.000031
-4	-4	-2	5	6	-0.000848	0.000000
-4	-4	-2	6	6	0.000087	0.000000
-4	-4	-2	7	6	0.000040	-0.000009
-4	-4	-2	8	6	0.000040	0.000009
-4	-4	-2	1	7	0.000153	0.000010
-4	-4	-2	2	7	-0.000031	0.000007
-4	-4	-2	3	7	0.000000	0.000000
-4	-4	-2	4	7	0.000038	0.000039
-4	-4	-2	5	7	-0.000043	-0.000023
-4	-4	-2	6	7	0.000040	0.000009
-4	-4	-2	7	7	0.000264	0.000000
-4	-4	-2	8	7	-0.000009	-0.000092
-4	-4	-2	1	8	-0.000011	-0.000154
-4	-4	-2	2	8	-0.000007	0.000031
-4	-4	-2	3	8	-0.000038	-0.000039
-4	-4	-2	4	8	0.000000	0.000000
-4	-4	-2	5	8	-0.000042	0.000023
-4	-4	-2	6	8	0.000040	-0.000009
-4	-4	-2	7	8	-0.000009	0.000092
-4	-4	-2	8	8	0.000264	0.000000
-4	-4	-1	1	1	-0.001541	0.000000
-4	-4	-1	2	1	0.000916	0.000000
-4	-4	-1	3	1	0.000382	-0.000042
-4	-4	-1	4	1	0.000378	0.000043
-4	-4	-1	5	1	0.000000	0.000000
-4	-4	-1	6	1	0.000008	0.000008
-4	-4	-1	7	1	-0.000150	0.000004
-4	-4	-1	8	1	0.000004	-0.000150
-4	-4	-1	1	2	-0.000916	0.000000
-4	-4	-1	2	2	-0.000326	0.000000
-4	-4	-1	3	2	0.000135	-0.000012
-4	-4	-1	4	2	0.000134	0.000012
-4	-4	-1	5	2	0.000008	0.000008
-4	-4	-1	6	2	0.000000	0.000000
-4	-4	-1	7	2	-0.000013	-0.000028
-4	-4	-1	8	2	-0.000028	-0.000012
-4	-4	-1	1	3	-0.000382	-0.000042
-4	-4	-1	2	3	0.000135	0.000012
-4	-4	-1	3	3	0.001065	0.000000
-4	-4	-1	4	3	0.000137	0.000164
-4	-4	-1	5	3	-0.000150	0.000004
-4	-4	-1	6	3	0.000013	0.000028
-4	-4	-1	7	3	0.000000	0.000000
-4	-4	-1	8	3	-0.000036	0.000037
-4	-4	-1	1	4	-0.000378	0.000043
-4	-4	-1	2	4	0.000134	-0.000012
-4	-4	-1	3	4	0.000137	-0.000164
-4	-4	-1	4	4	0.001061	0.000000
-4	-4	-1	5	4	0.000004	-0.000150
-4	-4	-1	6	4	0.000028	0.000012
-4	-4	-1	7	4	0.000036	-0.000037
-4	-4	-1	8	4	0.000000	0.000000
-4	-4	-1	1	5	0.000000	0.000000
-4	-4	-1	2	5	-0.000008	0.000008
-4	-4	-1	3	5	0.000150	0.000004
-4	-4	-1	4	5	-0.000004	-0.000150
-4	-4	-1	5	5	-0.001541	0.000000
-4	-4	-1	6	5	0.000916	0.000000
-4	-4	-1	7	5	0.000382	0.000042
-4	-4	-1	8	5	0.000378	-0.000043
-4	-4	-1	1	6	-0.000008	0.000008
-4	-4	-1	2	6	0.000000	0.000000
-4	-4	-1	3	6	0.000013	-0.000028
-4	-4	-1	4	6	0.000028	-0.000012
-4	-4	-1	5	6	-0.000916	0.000000
-4	-4	-1	6	6	-0.000326	0.000000
-4	-4	-1	7	6	0.000135	0.000012
-4	-4	-1	8	6	0.000134	-0.000012
-4	-4	-1	1	7	0.000150	0.000004
-4	-4	-1	2	7	-0.000013	0.000028
-4	-4	-1	3	7	0.000000	0.000000
-4	-4	-1	4	7	0.000036	0.000037
-4	-4	-1	5	7	-0.000382	0.000042
-4	-4	-1	6	7	0.000135	-0.000012
-4	-4	-1	7	7	0.001065	0.000000
-4	-4	-1	8	7	0.000137	-0.000164
-4	-4	-1	1	8	-0.000004	-0.000150
-4	-4	-1	2	8	-0.000028	0.000012
-4	-4	-1	3	8	-0.000036	-0.000037
-4	-4	-1	4	8	0.000000	0.000000
-4	-4	-1	5	8	-0.000378	-0.000043
-4	-4	-1	6	8	0.000134	0.000012
-4	-4	-1	7	8	0.000137	0.000164
-4	-4	-1	8	8	0.001061	0.000000
-4	-4	0	1	1	-0.002682	0.000000
-4	-4	0	2	1	0.000023	0.000000
-4	-4	0	3	1	0.000632	-0.000052
-4	-4	0	4	1	0.000626	0.000053
-4	-4	0	5	1	0.000000	0.000000
-4	-4	0	6	1	0.000016	0.000015
-4	-4	0	7	1	0.000009	-0.000004
-4	-4	0	8	1	-0.000004	0.000009
-4	-4	0	1	2	-0.000023	0.000000
-4	-4	0	2	2	-0.000598	0.000000
-4	-4	0	3	2	0.000005	0.000000
-4	-4	0	4	2	0.000005	0.000000
-4	-4	0	5	2	0.000016	0.000015
-4	-4	0	6	2	0.000000	0.000000
-4	-4	0	7	2	-0.000002	-0.000017
-4	-4	0	8	2	-0.000018	-0.000002
-4	-4	0	1	3	-0.000632	-0.000052
-4	-4	0	2	3	0.000005	0.000000
-4	-4	0	3	3	0.001458	0.000000
-4	-4	0	4	3	0.000080	0.000210
-4	-4	0	5	3	0.000009	-0.000004
-4	-4	0	6	3	0.000002	0.000017
-4	-4	0	7	3	0.000000	0.000000
-4	-4	0	8	3	-0.000002	0.000002
-4	-4	0	1	4	-0.000626	0.000053
-4	-4	0	2	4	0.000005	0.000000
-4	-4	0	3	4	0.000080	-0.000210
-4	-4	0	4	4	0.001457	0.000000
-4	-4	0	5	4	-0.000004	0.000009
-4	-4	0	6	4	0.000018	0.000002
-4	-4	0	7	4	0.000002	-0.000002
-4	-4	0	8	4	0.000000	0.000000
-4	-4	0	1	5	0.000000	0.000000
-4	-4	0	2	5	-0.000016	0.000015
-4	-4	0	3	5	-0.000009	-0.000004
-4	-4	0	4	5	0.000004	0.000009
-4	-4	0	5	5	-0.002682	0.000000
-4	-4	0	6	5	0.000023	0.000000
-4	-4	0	7	5	0.000632	0.000052
-4	-4	0	8	5	0.000626	-0.000053
-4	-4	0	1	6	-0.000016	0.000015
-4	-4	0	2	6	0.000000	0.000000
-4	-4	0	3	6	0.000002	-0.000017
-4	-4	0	4	6	0.000018	-0.000002
-4	-4	0	5	6	-0.000023	0.000000
-4	-4	0	6	6	-0.000598	0.000000
-4	-4	0	7	6	0.000005	0.000000
-4	-4	0	8	6	0.000005	0.000000
-4	-4	0	1	7	-0.000009	-0.000004
-4	-4	0	2	7	-0.000002	0.000017
-4	-4	0	3	7	0.000000	0.000000
-4	-4	0	4	7	0.000002	0.000002
-4	-4	0	5	7	-0.000632	0.000052
-4	-4	0	6	7	0.000005	0.000000
-4	-4	0	7	7	0.001458	0.000000
-4	-4	0	8	7	0.000080	-0.000210
-4	-4	0	1	8	0.000004	0.000009
-4	-4	0	2	8	-0.000018	0.000002
-4	-4	0	3	8	-0.000002	-0.000002
-4	-4	0	4	8	0.000000	0.000000
-4	-4	0	5	8	-0.000626	-0.000053
-4	-4	0	6	8	0.000005	0.000000
-4	-4	0	7	8	0.000080	0.000210
-4	-4	0	8	8	0.001457	0.000000
-4	-4	1	1	1	-0.001577	0.000000
-4	-4	1	2	1	-0.000868	0.000000
-4	-4	1	3	1	0.000353	-0.000034
-4	-4	1	4	1	0.000350	0.000035
-4	-4	1	5	1	0.000000	0.000000
-4	-4	1	6	1	0.000005	0.000005
-4	-4	1	7	1	0.000149	-0.000004
-4	-4	1	8	1	-0.000004	0.000149
-4	-4	1	1	2	0.000868	0.000000
-4	-4	1	2	2	-0.000365	0.000000
-4	-4	1	3	2	-0.000082	0.000008
-4	-4	1	4	2	-0.000081	-0.000008
-4	-4	1	5	2	0.000005	0.000005
-4	-4	1	6	2	0.000000	0.000000
-4	-4	1	7	2	-0.000003	-0.000030
-4	-4	1	8	2	-0.000030	-0.000003
-4	-4	1	1	3	-0.000353	-0.000034
-4	-4	1	2	3	-0.000082	-0.000008
-4	-4	1	3	3	0.000968	0.000000
-4	-4	1	4	3	0.000235	0.000147
-4	-4	1	5	3	0.000149	-0.000004
-4	-4	1	6	3	0.000003	0.000030
-4	-4	1	7	3	0.000000	0.000000
-4	-4	1	8	3	0.000014	-0.000014
-4	-4	1	1	4	-0.000350	0.000035
-4	-4	1	2	4	-0.000081	0.000008
-4	-4	1	3	4	0.000235	-0.000147
-4	-4	1	4	4	0.000962	0.000000
-4	-4	1	5	4	-0.000004	0.000149
-4	-4	1	6	4	0.000030	0.000003
-4	-4	1	7	4	-0.000014	0.000014
-4	-4	1	8	4	0.000000	0.000000
-4	-4	1	1	5	0.000000	0.000000
-4	-4	1	2	5	-0.000005	0.000005
-4	-4	1	3	5	-0.000149	-0.000004
-4	-4	1	4	5	0.000004	0.000149
-4	-4	1	5	5	-0.001577	0.000000
-4	-4	1	6	5	-0.000868	0.000000
-4	-4	1	7	5	0.000353	0.000034
-4	-4	1	8	5	0.000350	-0.000035
-4	-4	1	1	6	-0.000005	0.000005
-4	-4	1	2	6	0.000000	0.000000
-4	-4	1	3	6	0.000003	-0.000030
-4	-4	1	4	6	0.000030	-0.000003
-4	-4	1	5	6	0.000868	0.000000
-4	-4	1	6	6	-0.000365	0.000000
-4	-4	1	7	6	-0.000082	-0.000008
-4	-4	1	8	6	-0.000081	0.000008
-4	-4	1	1	7	-0.000149	-0.000004
-4	-4	1	2	7	-0.000003	0.000030
-4	-4	1	3	7	0.000000	0.000000
-4	-4	1	4	7	-0.000014	-0.000014
-4	-4	1	5	7	-0.000353	0.000034
-4	-4	1	6	7	-0.000082	0.000008
-4	-4	1	7	7	0.000968	0.000000
-4	-4	1	8	7	0.000235	-0.000147
-4	-4	1	1	8	0.000004	0.000149
-4	-4	1	2	8	-0.000030	0.000003
-4	-4	1	3	8	0.000014	0.000014
-4	-4	1	4	8	0.000000	0.000000
-4	-4	1	5	8	-0.000350	-0.000035
-4	-4	1	6	8	-0.000081	-0.000008
-4	-4	1	7	8	0.000235	0.000147
-4	-4	1	8	8	0.000962	0.000000
-4	-4	2	1	1	-0.000600	0.000000
-4	-4	2	2	1	-0.000832	0.000000
-4	-4	2	3	1	0.000041	0.000034
-4	-4	2	4	1	0.000040	-0.000035
-4	-4	2	5	1	0.000000	0.000000
-4	-4	2	6	1	-0.000012	-0.000012
-4	-4	2	7	1	0.000153	-0.000010
-4	-4	2	8	1	-0.000011	0.000153
-4	-4	2	1	2	0.000832	0.000000
-4	-4	2	2	2	0.000045	0.000000
-4	-4	2	3	2	-0.000029	-0.000010
-4	-4	2	4	2	-0.000029	0.000011
-4	-4	2	5	2	-0.000012	-0.000012
-4	-4	2	6	2	0.000000	0.000000
-4	-4	2	7	2	-0.000019	-0.000011
-4	-4	2	8	2	-0.000011	-0.000019
-4	-4	2	1	3	-0.000041	0.000034
-4	-4	2	2	3	-0.000029	0.000010
-4	-4	2	3	3	0.000283	0.000000
-4	-4	2	4	3	-0.000030	0.000104
-4	-4	2	5	3	0.000153	-0.000010
-4	-4	2	6	3	0.000019	0.000011
-4	-4	2	7	3	0.000000	0.000000
-4	-4	2	8	3	0.000039	-0.000040
-4	-4	2	1	4	-0.000040	-0.000035
-4	-4	2	2	4	-0.000029	-0.000011
-4	-4	2	3	4	-0.000030	-0.000104
-4	-4	2	4	4	0.000283	0.000000
-4	-4	2	5	4	-0.000011	0.000153
-4	-4	2	6	4	0.000011	0.000019
-4	-4	2	7	4	-0.000039	0.000040
-4	-4	2	8	4	0.000000	0.000000
-4	-4	2	1	5	0.000000	0.000000
-4	-4	2	2	5	0.000012	-0.000012
-4	-4	2	3	5	-0.000153	-0.000010
-4	-4	2	4	5	0.000011	0.000153
-4	-4	2	5	5	-0.000600	0.000000
-4	-4	2	6	5	-0.000832	0.000000
-4	-4	2	7	5	0.000041	-0.000034
-4	-4	2	8	5	0.000040	0.000035
-4	-4	2	1	6	0.000012	-0.000012
-4	-4	2	2	6	0.000000	0.000000
-4	-4	2	3	6	0.000019	-0.000011
-4	-4	2	4	6	0.000011	-0.000019
-4	-4	2	5	6	0.000832	0.000000
-4	-4	2	6	6	0.000045	0.000000
-4	-4	2	7	6	-0.000029	0.000010
-4	-4	2	8	6	-0.000029	-0.000011
-4	-4	2	1	7	-0.000153	-0.000010
-4	-4	2	2	7	-0.000019	0.000011
-4	-4	2	3	7	0.000000	0.000000
-4	-4	2	4	7	-0.000039	-0.000040
-4	-4	2	5	7	-0.000041	-0.000034
-4	-4	2	6	7	-0.000029	-0.000010
-4	-4	2	7	7	0.000283	0.000000
-4	-4	2	8	7	-0.000030	-0.000104
-4	-4	2	1	8	0.000011	0.000153
-4	-4	2	2	8	-0.000011	0.000019
-4	-4	2	3	8	0.000039	0.000040
-4	-4	2	4	8	0.000000	0.000000
-4	-4	2	5	8	-0.000040	0.000035
-4	-4	2	6	8	-0.000029	0.000011
-4	-4	2	7	8	-0.000030	0.000104
-4	-4	2	8	8	0.000283	0.000000
-4	-4	3	1	1	-0.000782	0.000000
-4	-4	3	2	1	-0.000484	0.000000
-4	-4	3	3	1	0.000010	0.000016
-4	-4	3	4	1	0.000010	-0.000017
-4	-4	3	5	1	0.000000	0.000000
-4	-4	3	6	1	-0.000002	-0.000002
-4	-4	3	7	1	0.000077	0.000004
-4	-4	3	8	1	0.000004	0.000077
-4	-4	3	1	2	0.000484	0.000000
-4	-4	3	2	2	0.000262	0.000000
-4	-4	3	3	2	0.000059	-0.000020
-4	-4	3	4	2	0.000058	0.000020
-4	-4	3	5	2	-0.000002	-0.000002
-4	-4	3	6	2	0.000000	0.000000
-4	-4	3	7	2	-0.000009	0.000009
-4	-4	3	8	2	0.000009	-0.000009
-4	-4	3	1	3	-0.000010	0.000016
-4	-4	3	2	3	0.000059	0.000020
-4	-4	3	3	3	0.000204	0.000000
-4	-4	3	4	3	-0.000069	0.000039
-4	-4	3	5	3	0.000077	0.000004
-4	-4	3	6	3	0.000009	-0.000009
-4	-4	3	7	3	0.000000	0.000000
-4	-4	3	8	3	0.000031	-0.000032
-4	-4	3	1	4	-0.000010	-0.000017
-4	-4	3	2	4	0.000058	-0.000020
-4	-4	3	3	4	-0.000069	-0.000039
-4	-4	3	4	4	0.000205	0.000000
-4	-4	3	5	4	0.000004	0.000077
-4	-4	3	6	4	-0.000009	0.000009
-4	-4	3	7	4	-0.000031	0.000032
-4	-4	3	8	4	0.000000	0.000000
-4	-4	3	1	5	0.000000	0.000000
-4	-4	3	2	5	0.000002	-0.000002
-4	-4	3	3	5	-0.000077	0.000004
-4	-4	3	4	5	-0.000004	0.000077
-4	-4	3	5	5	-0.000782	0.000000
-4	-4	3	6	5	-0.000484	0.000000
-4	-4	3	7	5	0.000010	-0.000016
-4	-4	3	8	5	0.000010	0.000017
-4	-4	3	1	6	0.000002	-0.000002
-4	-4	3	2	6	0.000000	0.000000
-4	-4	3	3	6	0.000009	0.000009
-4	-4	3	4	6	-0.000009	-0.000009
-4	-4	3	5	6	0.000484	0.000000
-4	-4	3	6	6	0.000262	0.000000
-4	-4	3	7	6	0.000059	0.000020
-4	-4	3	8	6	0.000058	-0.000020
-4	-4	3	1	7	-0.000077	0.000004
-4	-4	3	2	7	-0.000009	-0.000009
-4	-4	3	3	7	0.000000	0.000000
-4	-4	3	4	7	-0.000031	-0.000032
-4	-4	3	5	7	-0.000010	-0.000016
-4	-4	3	6	7	0.000059	-0.000020
-4	-4	3	7	7	0.000204	0.000000
-4	-4	3	8	7	-0.000069	-0.000039
-4	-4	3	1	8	-0.000004	0.000077
-4	-4	3	2	8	0.000009	0.000009
-4	-4	3	3	8	0.000031	0.000032
-4	-4	3	4	8	0.000000	0.000000
-4	-4	3	5	8	-0.000010	0.000017
-4	-4	3	6	8	0.000058	0.000020
-4	-4	3	7	8	-0.000069	0.000039
-4	-4	3	8	8	0.000205	0.000000
-4	-4	4	1	1	-0.001323	0.000000
-4	-4	4	2	1	-0.000197	0.000000
-4	-4	4	3	1	0.000184	-0.000020
-4	-4	4	4	1	0.000183	0.000020
-4	-4	4	5	1	0.000000	0.000000
-4	-4	4	6	1	0.000024	0.000024
-4	-4	4	7	1	0.000020	0.000005
-4	-4	4	8	1	0.000005	0.000020
-4	-4	4	1	2	0.000197	0.000000
-4	-4	4	2	2	0.000320	0.000000
-4	-4	4	3	2	-0.000027	-0.000002
-4	-4	4	4	2	-0.000028	0.000002
-4	-4	4	5	2	0.000024	0.000024
-4	-4	4	6	2	0.000000	0.000000
-4	-4	4	7	2	0.000021	0.000002
-4	-4	4	8	2	0.000002	0.000021
-4	-4	4	1	3	-0.000184	-0.000020
-4	-4	4	2	3	-0.000027	0.000002
-4	-4	4	3	3	0.000286	0.000000
-4	-4	4	4	3	0.000015	-0.000025
-4	-4	4	5	3	0.000020	0.000005
-4	-4	4	6	3	-0.000021	-0.000002
-4	-4	4	7	3	0.000000	0.000000
-4	-4	4	8	3	0.000006	-0.000007
-4	-4	4	1	4	-0.000183	0.000020
-4	-4	4	2	4	-0.000028	-0.000002
-4	-4	4	3	4	0.000015	0.000025
-4	-4	4	4	4	0.000285	0.000000
-4	-4	4	5	4	0.000005	0.000020
-4	-4	4	6	4	-0.000002	-0.000021
-4	-4	4	7	4	-0.000006	0.000007
-4	-4	4	8	4	0.000000	0.000000
-4	-4	4	1	5	0.000000	0.000000
-4	-4	4	2	5	-0.000024	0.000024
-4	-4	4	3	5	-0.000020	0.000005
-4	-4	4	4	5	-0.000005	0.000020
-4	-4	4	5	5	-0.001323	0.000000
-4	-4	4	6	5	-0.000197	0.000000
-4	-4	4	7	5	0.000184	0.000020
-4	-4	4	8	5	0.000183	-0.000020
-4	-4	4	1	6	-0.000024	0.000024
-4	-4	4	2	6	0.000000	0.000000
-4	-4	4	3	6	-0.000021	0.000002
-4	-4	4	4	6	-0.000002	0.000021
-4	-4	4	5	6	0.000197	0.000000
-4	-4	4	6	6	0.000320	0.000000
-4	-4	4	7	6	-0.000027	0.000002
-4	-4	4	8	6	-0.000028	-0.000002
-4	-4	4	1	7	-0.000020	0.000005
-4	-4	4	2	7	0.000021	-0.000002
-4	-4	4	3	7	0.000000	0.000000
-4	-4	4	4	7	-0.000006	-0.000007
-4	-4	4	5	7	-0.000184	0.000020
-4	-4	4	6	7	-0.000027	-0.000002
-4	-4	4	7	7	0.000286	0.000000
-4	-4	4	8	7	0.000015	0.000025
-4	-4	4	1	8	-0.000005	0.000020
-4	-4	4	2	8	0.000002	-0.000021
-4	-4	4	3	8	0.000006	0.000007
-4	-4	4	4	8	0.000000	0.000000
-4	-4	4	5	8	-0.000183	-0.000020
-4	-4	4	6	8	-0.000028	0.000002
-4	-4	4	7	8	0.000015	-0.000025
-4	-4	4	8	8	0.000285	0.000000
-4	-3	-4	1	1	-0.000761	0.000000
-4	-3	-4	2	1	-0.000002	-0.000003
-4	-3	-4	3	1	0.000004	-0.000072
-4	-3	-4	4	1	0.000470	-0.000002
-4	-3	-4	5	1	0.000000	0.000000
-4	-3	-4	6	1	0.000000	0.000072
-4	-3	-4	7	1	0.000001	0.000004
-4	-3	-4	8	1	0.000000	0.000002
-4	-3	-4	1	2	0.000002	-0.000003
-4	-3	-4	2	2	0.000264	0.000000
-4	-3	-4	3	2	-0.000086	0.000024
-4	-3	-4	4	2	-0.000082	-0.000010
-4	-3	-4	5	2	0.000000	0.000072
-4	-3	-4	6	2	0.000000	0.000000
-4	-3	-4	7	2	-0.000042	0.000025
-4	-3	-4	8	2	0.000021	-0.000017
-4	-3	-4	1	3	-0.000004	-0.000072
-4	-3	-4	2	3	-0.000086	-0.000024
-4	-3	-4	3	3	0.000259	0.000000
-4	-3	-4	4	3	-0.000080	0.000016
-4	-3	-4	5	3	0.000001	0.000004
-4	-3	-4	6	3	0.000042	-0.000025
-4	-3	-4	7	3	0.000000	0.000000
-4	-3	-4	8	3	-0.000021	0.000010
-4	-3	-4	1	4	-0.000470	-0.000002
-4	-3	-4	2	4	-0.000082	0.000010
-4	-3	-4	3	4	-0.000080	-0.000016
-4	-3	-4	4	4	0.000279	0.000000
-4	-3	-4	5	4	0.000000	0.000002
-4	-3	-4	6	4	-0.000021	0.000017
-4	-3	-4	7	4	0.000021	-0.000010
-4	-3	-4	8	4	0.000000	0.000000
-4	-3	-4	1	5	0.000000	0.000000
-4	-3	-4	2	5	0.000000	0.000072
-4	-3	-4	3	5	-0.000001	0.000004
-4	-3	-4	4	5	0.000000	0.000002
-4	-3	-4	5	5	-0.000761	0.000000
-4	-3	-4	6	5	-0.000002	0.000003
-4	-3	-4	7	5	0.000004	0.000072
-4	-3	-4	8	5	0.000470	0.000002
-4	-3	-4	1	6	0.000000	0.000072
-4	-3	-4	2	6	0.000000	0.000000
-4	-3	-4	3	6	0.000042	0.000025
-4	-3	-4	4	6	-0.000021	-0.000017
-4	-3	-4	5	6	0.000002	0.000003
-4	-3	-4	6	6	0.000264	0.000000
-4	-3	-4	7	6	-0.000086	-0.000024
-4	-3	-4	8	6	-0.000082	0.000010
-4	-3	-4	1	7	-0.000001	0.000004
-4	-3	-4	2	7	-0.000042	-0.000025
-4	-3	-4	3	7	0.000000	0.000000
-4	-3	-4	4	7	0.000021	0.000010
-4	-3	-4	5	7	-0.000004	0.000072
-4	-3	-4	6	7	-0.000086	0.000024
-4	-3	-4	7	7	0.000259	0.000000
-4	-3	-4	8	7	-0.000080	-0.000016
-4	-3	-4	1	8	0.000000	0.000002
-4	-3	-4	2	8	0.000021	0.000017
-4	-3	-4	3	8	-0.000021	-0.000010
-4	-3	-4	4	8	0.000000	0.000000
-4	-3	-4	5	8	-0.000470	0.000002
-4	-3	-4	6	8	-0.000082	-0.000010
-4	-3	-4	7	8	-0.000080	0.000016
-4	-3	-4	8	8	0.000279	0.000000
-4	-3	-3	1	1	-0.000707	0.000000
-4	-3	-3	2	1	0.000185	0.000005
-4	-3	-3	3	1	0.000113	-0.000005
-4	-3	-3	4	1	0.000186	0.000024
-4	-3	-3	5	1	0.000000	0.000000
-4	-3	-3	6	1	0.000024	0.000019
-4	-3	-3	7	1	-0.000005	0.000000
-4	-3	-3	8	1	0.000005	-0.000019
-4	-3	-3	1	2	-0.000185	0.000005
-4	-3	-3	2	2	0.000236	0.000000
-4	-3	-3	3	2	-0.000015	0.000065
-4	-3	-3	4	2	-0.000042	-0.000005
-4	-3	-3	5	2	0.000024	0.000019
-4	-3	-3	6	2	0.000000	0.000000
-4	-3	-3	7	2	-0.000029	0.000021
-4	-3	-3	8	2	0.000006	-0.000015
-4	-3	-3	1	3	-0.000113	-0.000005
-4	-3	-3	2	3	-0.000015	-0.000065
-4	-3	-3	3	3	0.000169	0.000000
-4	-3	-3	4	3	-0.000015	0.000027
-4	-3	-3	5	3	-0.000005	0.000000
-4	-3	-3	6	3	0.000029	-0.000021
-4	-3	-3	7	3	0.000000	0.000000
-4	-3	-3	8	3	-0.000066	0.000021
-4	-3	-3	1	4	-0.000186	0.000024
-4	-3	-3	2	4	-0.000042	0.000005
-4	-3	-3	3	4	-0.000015	-0.000027
-4	-3	-3	4	4	0.000230	0.000000
-4	-3	-3	5	4	0.000005	-0.000019
-4	-3	-3	6	4	-0.000006	0.000015
-4	-3	-3	7	4	0.000066	-0.000021
-4	-3	-3	8	4	0.000000	0.000000
-4	-3	-3	1	5	0.000000	0.000000
-4	-3	-3	2	5	-0.000024	0.000019
-4	-3	-3	3	5	0.000005	0.000000
-4	-3	-3	4	5	-0.000005	-0.000019
-4	-3	-3	5	5	-0.000707	0.000000
-4	-3	-3	6	5	0.000185	-0.000005
-4	-3	-3	7	5	0.000113	0.000005
-4	-3	-3	8	5	0.000186	-0.000024
-4	-3	-3	1	6	-0.000024	0.000019
-4	-3	-3	2	6	0.000000	0.000000
-4	-3	-3	3	6	0.000029	0.000021
-4	-3	-3	4	6	-0.000006	-0.000015
-4	-3	-3	5	6	-0.000185	-0.000005
-4	-3	-3	6	6	0.000236	0.000000
-4	-3	-3	7	6	-0.000015	-0.000065
-4	-3	-3	8	6	-0.000042	0.000005
-4	-3	-3	1	7	0.000005	0.000000
-4	-3	-3	2	7	-0.000029	-0.000021
-4	-3	-3	3	7	0.000000	0.000000
-4	-3	-3	4	7	0.000066	0.000021
-4	-3	-3	5	7	-0.000113	0.000005
-4	-3	-3	6	7	-0.000015	0.000065
-4	-3	-3	7	7	0.000169	0.000000
-4	-3	-3	8	7	-0.000015	-0.000027
-4	-3	-3	1	8	-0.000005	-0.000019
-4	-3	-3	2	8	0.000006	0.000015
-4	-3	-3	3	8	-0.000066	-0.000021
-4	-3	-3	4	8	0.000000	0.000000
-4	-3	-3	5	8	-0.000186	-0.000024
-4	-3	-3	6	8	-0.000042	-0.000005
-4	-3	-3	7	8	-0.000015	0.000027
-4	-3	-3	8	8	0.000230	0.000000
-4	-3	-2	1	1	-0.000684	0.000000
-4	-3	-2	2	1	0.000601	0.000006
-4	-3	-2	3	1	0.000038	0.000077
-4	-3	-2	4	1	0.000133	-0.000015
-4	-3	-2	5	1	0.000000	0.000000
-4	-3	-2	6	1	0.000023	-0.000017
-4	-3	-2	7	1	-0.000048	0.000011
-4	-3	-2	8	1	0.000017	-0.000073
-4	-3	-2	1	2	-0.000601	0.000006
-4	-3	-2	2	2	0.000131	0.000000
-4	-3	-2	3	2	0.000089	0.000030
-4	-3	-2	4	2	0.000304	0.000000
-4	-3	-2	5	2	0.000023	-0.000017
-4	-3	-2	6	2	0.000000	0.000000
-4	-3	-2	7	2	-0.000026	0.000001
-4	-3	-2	8	2	-0.000011	-0.000014
-4	-3	-2	1	3	-0.000038	0.000077
-4	-3	-2	2	3	0.000089	-0.000030
-4	-3	-2	3	3	0.000337	0.000000
-4	-3	-2	4	3	-0.000075	0.000052
-4	-3	-2	5	3	-0.000048	0.000011
-4	-3	-2	6	3	0.000026	-0.000001
-4	-3	-2	7	3	0.000000	0.000000
-4	-3	-2	8	3	-0.000076	0.000007
-4	-3	-2	1	4	-0.000133	-0.000015
-4	-3	-2	2	4	0.000304	0.000000
-4	-3	-2	3	4	-0.000075	-0.000052
-4	-3	-2	4	4	0.000234	0.000000
-4	-3	-2	5	4	0.000017	-0.000073
-4	-3	-2	6	4	0.000011	0.000014
-4	-3	-2	7	4	0.000076	-0.000007
-4	-3	-2	8	4	0.000000	0.000000
-4	-3	-2	1	5	0.000000	0.000000
-4	-3	-2	2	5	-0.000023	-0.000017
-4	-3	-2	3	5	0.000048	0.000011
-4	-3	-2	4	5	-0.000017	-0.000073
-4	-3	-2	5	5	-0.000684	0.000000
-4	-3	-2	6	5	0.000601	-0.000006
-4	-3	-2	7	5	0.000038	-0.000077
-4	-3	-2	8	5	0.000133	0.000015
-4	-3	-2	1	6	-0.000023	-0.000017
-4	-3	-2	2	6	0.000000	0.000000
-4	-3	-2	3	6	0.000026	0.000001
-4	-3	-2	4	6	0.000011	-0.000014
-4	-3	-2	5	6	-0.000601	-0.000006
-4	-3	-2	6	6	0.000131	0.000000
-4	-3	-2	7	6	0.000089	-0.000030
-4	-3	-2	8	6	0.000304	0.000000
-4	-3	-2	1	7	0.000048	0.000011
-4	-3	-2	2	7	-0.000026	-0.000001
-4	-3	-2	3	7	0.000000	0.000000
-4	-3	-2	4	7	0.000076	0.000007
-4	-3	-2	5	7	-0.000038	-0.000077
-4	-3	-2	6	7	0.000089	0.000030
-4	-3	-2	7	7	0.000337	0.000000
-4	-3	-2	8	7	-0.000075	-0.000052
-4	-3	-2	1	8	-0.000017	-0.000073
-4	-3	-2	2	8	-0.000011	0.000014
-4	-3	-2	3	8	-0.000076	-0.000007
-4	-3	-2	4	8	0.000000	0.000000
-4	-3	-2	5	8	-0.000133	0.000015
-4	-3	-2	6	8	0.000304	0.000000
-4	-3	-2	7	8	-0.000075	0.000052
-4	-3	-2	8	8	0.000234	0.000000
-4	-3	-1	1	1	-0.001887	0.000000
-4	-3	-1	2	1	0.000901	-0.000003
-4	-3	-1	3	1	0.000537	-0.000039
-4	-3	-1	4	1	0.001043	0.000017
-4	-3	-1	5	1	0.000000	0.000000
-4	-3	-1	6	1	0.000028	-0.000005
-4	-3	-1	7	1	-0.000046	0.000027
-4	-3	-1	8	1	0.000024	-0.000074
-4	-3	-1	1	2	-0.000901	-0.000003
-4	-3	-1	2	2	-0.000317	0.000000
-4	-3	-1	3	2	0.000160	-0.000016
-4	-3	-1	4	2	0.000569	-0.000001
-4	-3	-1	5	2	0.000028	-0.000005
-4	-3	-1	6	2	0.000000	0.000000
-4	-3	-1	7	2	-0.000004	-0.000037
-4	-3	-1	8	2	-0.000053	0.000005
-4	-3	-1	1	3	-0.000537	-0.000039
-4	-3	-1	2	3	0.000160	0.000016
-4	-3	-1	3	3	0.001169	0.000000
-4	-3	-1	4	3	0.000287	0.000075
-4	-3	-1	5	3	-0.000046	0.000027
-4	-3	-1	6	3	0.000004	0.000037
-4	-3	-1	7	3	0.000000	0.000000
-4	-3	-1	8	3	-0.000048	0.000034
-4	-3	-1	1	4	-0.001043	0.000017
-4	-3	-1	2	4	0.000569	0.000001
-4	-3	-1	3	4	0.000287	-0.000075
-4	-3	-1	4	4	0.001032	0.000000
-4	-3	-1	5	4	0.000024	-0.000074
-4	-3	-1	6	4	0.000053	-0.000005
-4	-3	-1	7	4	0.000048	-0.000034
-4	-3	-1	8	4	0.000000	0.000000
-4	-3	-1	1	5	0.000000	0.000000
-4	-3	-1	2	5	-0.000028	-0.000005
-4	-3	-1	3	5	0.000046	0.000027
-4	-3	-1	4	5	-0.000024	-0.000074
-4	-3	-1	5	5	-0.001887	0.000000
-4	-3	-1	6	5	0.000901	0.000003
-4	-3	-1	7	5	0.000537	0.000039
-4	-3	-1	8	5	0.001043	-0.000017
-4	-3	-1	1	6	-0.000028	-0.000005
-4	-3	-1	2	6	0.000000	0.000000
-4	-3	-1	3	6	0.000004	-0.000037
-4	-3	-1	4	6	0.000053	0.000005
-4	-3	-1	5	6	-0.000901	0.000003
-4	-3	-1	6	6	-0.000317	0.000000
-4	-3	-1	7	6	0.000160	0.000016
-4	-3	-1	8	6	0.000569	0.000001
-4	-3	-1	1	7	0.000046	0.000027
-4	-3	-1	2	7	-0.000004	0.000037
-4	-3	-1	3	7	0.000000	0.000000
-4	-3	-1	4	7	0.000048	0.000034
-4	-3	-1	5	7	-0.000537	0.000039
-4	-3	-1	6	7	0.000160	-0.000016
-4	-3	-1	7	7	0.001169	0.000000
-4	-3	-1	8	7	0.000287	-0.000075
-4	-3	-1	1	8	-0.000024	-0.000074
-4	-3	-1	2	8	-0.000053	-0.000005
-4	-3	-1	3	8	-0.000048	-0.000034
-4	-3	-1	4	8	0.000000	0.000000
-4	-3	-1	5	8	-0.001043	-0.000017
-4	-3	-1	6	8	0.000569	-0.000001
-4	-3	-1	7	8	0.000287	0.000075
-4	-3	-1	8	8	0.001032	0.000000
-4	-3	0	1	1	-0.003662	0.000000
-4	-3	0	2	1	0.000031	0.000006
-4	-3	0	3	1	0.001118	-0.000154
-4	-3	0	4	1	0.002167	0.000062
-4	-3	0	5	1	0.000000	0.000000
-4	-3	0	6	1	0.000026	0.000014
-4	-3	0	7	1	0.000008	-0.000005
-4	-3	0	8	1	0.000000	0.000001
-4	-3	0	1	2	-0.000031	0.000006
-4	-3	0	2	2	-0.000638	0.000000
-4	-3	0	3	2	-0.000022	0.000014
-4	-3	0	4	2	0.000023	0.000002
-4	-3	0	5	2	0.000026	0.000014
-4	-3	0	6	2	0.000000	0.000000
-4	-3	0	7	2	-0.000006	-0.000078
-4	-3	0	8	2	-0.000065	0.000000
-4	-3	0	1	3	-0.001118	-0.000154
-4	-3	0	2	3	-0.000022	-0.000014
-4	-3	0	3	3	0.002710	0.000000
-4	-3	0	4	3	0.000862	0.000145
-4	-3	0	5	3	0.000008	-0.000005
-4	-3	0	6	3	0.000006	0.000078
-4	-3	0	7	3	0.000000	0.000000
-4	-3	0	8	3	-0.000005	0.000003
-4	-3	0	1	4	-0.002167	0.000062
-4	-3	0	2	4	0.000023	-0.000002
-4	-3	0	3	4	0.000862	-0.000145
-4	-3	0	4	4	0.001946	0.000000
-4	-3	0	5	4	0.000000	0.000001
-4	-3	0	6	4	0.000065	0.000000
-4	-3	0	7	4	0.000005	-0.000003
-4	-3	0	8	4	0.000000	0.000000
-4	-3	0	1	5	0.000000	0.000000
-4	-3	0	2	5	-0.000026	0.000014
-4	-3	0	3	5	-0.000008	-0.000005
-4	-3	0	4	5	0.000000	0.000001
-4	-3	0	5	5	-0.003662	0.000000
-4	-3	0	6	5	0.000031	-0.000006
-4	-3	0	7	5	0.001118	0.000154
-4	-3	0	8	5	0.002167	-0.000062
-4	-3	0	1	6	-0.000026	0.000014
-4	-3	0	2	6	0.000000	0.000000
-4	-3	0	3	6	0.000006	-0.000078
-4	-3	0	4	6	0.000065	0.000000
-4	-3	0	5	6	-0.000031	-0.000006
-4	-3	0	6	6	-0.000638	0.000000
-4	-3	0	7	6	-0.000022	-0.000014
-4	-3	0	8	6	0.000023	-0.000002
-4	-3	0	1	7	-0.000008	-0.000005
-4	-3	0	2	7	-0.000006	0.000078
-4	-3	0	3	7	0.000000	0.000000
-4	-3	0	4	7	0.000005	0.000003
-4	-3	0	5	7	-0.001118	0.000154
-4	-3	0	6	7	-0.000022	0.000014
-4	-3	0	7	7	0.002710	0.000000
-4	-3	0	8	7	0.000862	-0.000145
-4	-3	0	1	8	0.000000	0.000001
-4	-3	0	2	8	-0.000065	0.000000
-4	-3	0	3	8	-0.000005	-0.000003
-4	-3	0	4	8	0.000000	0.000000
-4	-3	0	5	8	-0.002167	-0.000062
-4	-3	0	6	8	0.000023	0.000002
-4	-3	0	7	8	0.000862	0.000145
-4	-3	0	8	8	0.001946	0.000000
-4	-3	1	1	1	-0.001898	0.000000
-4	-3	1	2	1	-0.000869	0.000012
-4	-3	1	3	1	0.000541	-0.000039
-4	-3	1	4	1	0.001019	0.000008
-4	-3	1	5	1	0.000000	0.000000
-4	-3	1	6	1	0.000012	-0.000001
-4	-3	1	7	1	0.000053	-0.000028
-4	-3	1	8	1	-0.000019	0.000063
-4	-3	1	1	2	0.000869	0.000012
-4	-3	1	2	2	-0.000326	0.000000
-4	-3	1	3	2	-0.000227	0.000032
-4	-3	1	4	2	-0.000552	0.000010
-4	-3	1	5	2	0.000012	-0.000001
-4	-3	1	6	2	0.000000	0.000000
-4	-3	1	7	2	0.000000	-0.000048
-4	-3	1	8	2	-0.000055	0.000006
-4	-3	1	1	3	-0.000541	-0.000039
-4	-3	1	2	3	-0.000227	-0.000032
-4	-3	1	3	3	0.001094	0.000000
-4	-3	1	4	3	0.000410	0.000050
-4	-3	1	5	3	0.000053	-0.000028
-4	-3	1	6	3	0.000000	0.000048
-4	-3	1	7	3	0.000000	0.000000
-4	-3	1	8	3	0.000045	-0.000018
-4	-3	1	1	4	-0.001019	0.000008
-4	-3	1	2	4	-0.000552	-0.000010
-4	-3	1	3	4	0.000410	-0.000050
-4	-3	1	4	4	0.000931	0.000000
-4	-3	1	5	4	-0.000019	0.000063
-4	-3	1	6	4	0.000055	-0.000006
-4	-3	1	7	4	-0.000045	0.000018
-4	-3	1	8	4	0.000000	0.000000
-4	-3	1	1	5	0.000000	0.000000
-4	-3	1	2	5	-0.000012	-0.000001
-4	-3	1	3	5	-0.000053	-0.000028
-4	-3	1	4	5	0.000019	0.000063
-4	-3	1	5	5	-0.001898	0.000000
-4	-3	1	6	5	-0.000869	-0.000012
-4	-3	1	7	5	0.000541	0.000039
-4	-3	1	8	5	0.001019	-0.000008
-4	-3	1	1	6	-0.000012	-0.000001
-4	-3	1	2	6	0.000000	0.000000
-4	-3	1	3	6	0.000000	-0.000048
-4	-3	1	4	6	0.000055	0.000006
-4	-3	1	5	6	0.000869	-0.000012
-4	-3	1	6	6	-0.000326	0.000000
-4	-3	1	7	6	-0.000227	-0.000032
-4	-3	1	8	6	-0.000552	-0.000010
-4	-3	1	1	7	-0.000053	-0.000028
-4	-3	1	2	7	0.000000	0.000048
-4	-3	1	3	7	0.000000	0.000000
-4	-3	1	4	7	-0.000045	-0.000018
-4	-3	1	5	7	-0.000541	0.000039
-4	-3	1	6	7	-0.000227	0.000032
-4	-3	1	7	7	0.001094	0.000000
-4	-3	1	8	7	0.000410	-0.000050
-4	-3	1	1	8	0.000019	0.000063
-4	-3	1	2	8	-0.000055	-0.000006
-4	-3	1	3	8	0.000045	0.000018
-4	-3	1	4	8	0.000000	0.000000
-4	-3	1	5	8	-0.001019	-0.000008
-4	-3	1	6	8	-0.000552	0.000010
-4	-3	1	7	8	0.000410	0.000050
-4	-3	1	8	8	0.000931	0.000000
-4	-3	2	1	1	-0.000705	0.000000
-4	-3	2	2	1	-0.000576	0.000001
-4	-3	2	3	1	0.000053	0.000081
-4	-3	2	4	1	0.000165	-0.000034
-4	-3	2	5	1	0.000000	0.000000
-4	-3	2	6	1	0.000003	-0.000002
-4	-3	2	7	1	0.000054	-0.000013
-4	-3	2	8	1	-0.000015	0.000068
-4	-3	2	1	2	0.000576	0.000001
-4	-3	2	2	2	0.000124	0.000000
-4	-3	2	3	2	-0.000106	-0.000026
-4	-3	2	4	2	-0.000323	0.000003
-4	-3	2	5	2	0.000003	-0.000002
-4	-3	2	6	2	0.000000	0.000000
-4	-3	2	7	2	-0.000015	-0.000007
-4	-3	2	8	2	-0.000006	-0.000012
-4	-3	2	1	3	-0.000053	0.000081
-4	-3	2	2	3	-0.000106	0.000026
-4	-3	2	3	3	0.000338	0.000000
-4	-3	2	4	3	-0.000133	0.000067
-4	-3	2	5	3	0.000054	-0.000013
-4	-3	2	6	3	0.000015	0.000007
-4	-3	2	7	3	0.000000	0.000000
-4	-3	2	8	3	0.000070	-0.000011
-4	-3	2	1	4	-0.000165	-0.000034
-4	-3	2	2	4	-0.000323	-0.000003
-4	-3	2	3	4	-0.000133	-0.000067
-4	-3	2	4	4	0.000285	0.000000
-4	-3	2	5	4	-0.000015	0.000068
-4	-3	2	6	4	0.000006	0.000012
-4	-3	2	7	4	-0.000070	0.000011
-4	-3	2	8	4	0.000000	0.000000
-4	-3	2	1	5	0.000000	0.000000
-4	-3	2	2	5	-0.000003	-0.000002
-4	-3	2	3	5	-0.000054	-0.000013
-4	-3	2	4	5	0.000015	0.000068
-4	-3	2	5	5	-0.000705	0.000000
-4	-3	2	6	5	-0.000576	-0.000001
-4	-3	2	7	5	0.000053	-0.000081
-4	-3	2	8	5	0.000165	0.000034
-4	-3	2	1	6	-0.000003	-0.000002
-4	-3	2	2	6	0.000000	0.000000
-4	-3	2	3	6	0.000015	-0.000007
-4	-3	2	4	6	0.000006	-0.000012
-4	-3	2	5	6	0.000576	-0.000001
-4	-3	2	6	6	0.000124	0.000000
-4	-3	2	7	6	-0.000106	0.000026
-4	-3	2	8	6	-0.000323	-0.000003
-4	-3	2	1	7	-0.000054	-0.000013
-4	-3	2	2	7	-0.000015	0.000007
-4	-3	2	3	7	0.000000	0.000000
-4	-3	2	4	7	-0.000070	-0.000011
-4	-3	2	5	7	-0.000053	-0.000081
-4	-3	2	6	7	-0.000106	-0.000026
-4	-3	2	7	7	0.000338	0.000000
-4	-3	2	8	7	-0.000133	-0.000067
-4	-3	2	1	8	0.000015	0.000068
-4	-3	2	2	8	-0.000006	0.000012
-4	-3	2	3	8	0.000070	0.000011
-4	-3	2	4	8	0.000000	0.000000
-4	-3	2	5	8	-0.000165	0.000034
-4	-3	2	6	8	-0.000323	0.000003
-4	-3	2	7	8	-0.000133	0.000067
-4	-3	2	8	8	0.000285	0.000000
-4	-3	3	1	1	-0.000731	0.000000
-4	-3	3	2	1	-0.000205	-0.000004
-4	-3	3	3	1	0.000116	-0.000005
-4	-3	3	4	1	0.000226	0.000015
-4	-3	3	5	1	0.000000	0.000000
-4	-3	3	6	1	0.000006	0.000036
-4	-3	3	7	1	0.000001	-0.000005
-4	-3	3	8	1	-0.000008	0.000028
-4	-3	3	1	2	0.000205	-0.000004
-4	-3	3	2	2	0.000232	0.000000
-4	-3	3	3	2	0.000029	-0.000079
-4	-3	3	4	2	0.000018	0.000007
-4	-3	3	5	2	0.000006	0.000036
-4	-3	3	6	2	0.000000	0.000000
-4	-3	3	7	2	-0.000021	0.000017
-4	-3	3	8	2	0.000011	-0.000023
-4	-3	3	1	3	-0.000116	-0.000005
-4	-3	3	2	3	0.000029	0.000079
-4	-3	3	3	3	0.000176	0.000000
-4	-3	3	4	3	0.000000	0.000029
-4	-3	3	5	3	0.000001	-0.000005
-4	-3	3	6	3	0.000021	-0.000017
-4	-3	3	7	3	0.000000	0.000000
-4	-3	3	8	3	0.000074	-0.000020
-4	-3	3	1	4	-0.000226	0.000015
-4	-3	3	2	4	0.000018	-0.000007
-4	-3	3	3	4	0.000000	-0.000029
-4	-3	3	4	4	0.000243	0.000000
-4	-3	3	5	4	-0.000008	0.000028
-4	-3	3	6	4	-0.000011	0.000023
-4	-3	3	7	4	-0.000074	0.000020
-4	-3	3	8	4	0.000000	0.000000
-4	-3	3	1	5	0.000000	0.000000
-4	-3	3	2	5	-0.000006	0.000036
-4	-3	3	3	5	-0.000001	-0.000005
-4	-3	3	4	5	0.000008	0.000028
-4	-3	3	5	5	-0.000731	0.000000
-4	-3	3	6	5	-0.000205	0.000004
-4	-3	3	7	5	0.000116	0.000005
-4	-3	3	8	5	0.000226	-0.000015
-4	-3	3	1	6	-0.000006	0.000036
-4	-3	3	2	6	0.000000	0.000000
-4	-3	3	3	6	0.000021	0.000017
-4	-3	3	4	6	-0.000011	-0.000023
-4	-3	3	5	6	0.000205	0.000004
-4	-3	3	6	6	0.000232	0.000000
-4	-3	3	7	6	0.000029	0.000079
-4	-3	3	8	6	0.000018	-0.000007
-4	-3	3	1	7	-0.000001	-0.000005
-4	-3	3	2	7	-0.000021	-0.000017
-4	-3	3	3	7	0.000000	0.000000
-4	-3	3	4	7	-0.000074	-0.000020
-4	-3	3	5	7	-0.000116	0.000005
-4	-3	3	6	7	0.000029	-0.000079
-4	-3	3	7	7	0.000176	0.000000
-4	-3	3	8	7	0.000000	-0.000029
-4	-3	3	1	8	0.000008	0.000028
-4	-3	3	2	8	0.000011	0.000023
-4	-3	3	3	8	0.000074	0.000020
-4	-3	3	4	8	0.000000	0.000000
-4	-3	3	5	8	-0.000226	-0.000015
-4	-3	3	6	8	0.000018	0.000007
-4	-3	3	7	8	0.000000	0.000029
-4	-3	3	8	8	0.000243	0.000000
-4	-3	4	1	1	-0.000757	0.000000
-4	-3	4	2	1	-0.000041	-0.000001
-4	-3	4	3	1	0.000049	-0.000078
-4	-3	4	4	1	0.000490	0.000005
-4	-3	4	5	1	0.000000	0.000000
-4	-3	4	6	1	-0.000006	0.000079
-4	-3	4	7	1	-0.000017	0.000004
-4	-3	4	8	1	0.000001	0.000002
-4	-3	4	1	2	0.000041	-0.000001
-4	-3	4	2	2	0.000255	0.000000
-4	-3	4	3	2	0.000095	-0.000032
-4	-3	4	4	2	0.000034	0.000005
-4	-3	4	5	2	-0.000006	0.000079
-4	-3	4	6	2	0.000000	0.000000
-4	-3	4	7	2	-0.000040	0.000023
-4	-3	4	8	2	0.000023	-0.000022
-4	-3	4	1	3	-0.000049	-0.000078
-4	-3	4	2	3	0.000095	0.000032
-4	-3	4	3	3	0.000184	0.000000
-4	-3	4	4	3	-0.000029	0.000006
-4	-3	4	5	3	-0.000017	0.000004
-4	-3	4	6	3	0.000040	-0.000023
-4	-3	4	7	3	0.000000	0.000000
-4	-3	4	8	3	0.000022	-0.000015
-4	-3	4	1	4	-0.000490	0.000005
-4	-3	4	2	4	0.000034	-0.000005
-4	-3	4	3	4	-0.000029	-0.000006
-4	-3	4	4	4	0.000242	0.000000
-4	-3	4	5	4	0.000001	0.000002
-4	-3	4	6	4	-0.000023	0.000022
-4	-3	4	7	4	-0.000022	0.000015
-4	-3	4	8	4	0.000000	0.000000
-4	-3	4	1	5	0.000000	0.000000
-4	-3	4	2	5	0.000006	0.000079
-4	-3	4	3	5	0.000017	0.000004
-4	-3	4	4	5	-0.000001	0.000002
-4	-3	4	5	5	-0.000757	0.000000
-4	-3	4	6	5	-0.000041	0.000001
-4	-3	4	7	5	0.000049	0.000078
-4	-3	4	8	5	0.000490	-0.000005
-4	-3	4	1	6	0.000006	0.000079
-4	-3	4	2	6	0.000000	0.000000
-4	-3	4	3	6	0.000040	0.000023
-4	-3	4	4	6	-0.000023	-0.000022
-4	-3	4	5	6	0.000041	0.000001
-4	-3	4	6	6	0.000255	0.000000
-4	-3	4	7	6	0.000095	0.000032
-4	-3	4	8	6	0.000034	-0.000005
-4	-3	4	1	7	0.000017	0.000004
-4	-3	4	2	7	-0.000040	-0.000023
-4	-3	4	3	7	0.000000	0.000000
-4	-3	4	4	7	-0.000022	-0.000015
-4	-3	4	5	7	-0.000049	0.000078
-4	-3	4	6	7	0.000095	-0.000032
-4	-3	4	7	7	0.000184	0.000000
-4	-3	4	8	7	-0.000029	-0.000006
-4	-3	4	1	8	-0.000001	0.000002
-4	-3	4	2	8	0.000023	0.000022
-4	-3	4	3	8	0.000022	0.000015
-4	-3	4	4	8	0.000000	0.000000
-4	-3	4	5	8	-0.000490	-0.000005
-4	-3	4	6	8	0.000034	0.000005
-4	-3	4	7	8	-0.000029	0.000006
-4	-3	4	8	8	0.000242	0.000000
-4	-2	-4	1	1	-0.000580	0.000000
-4	-2	-4	2	1	0.000019	0.000011
-4	-2	-4	3	1	0.000043	-0.000153
-4	-2	-4	4	1	0.000846	-0.000006
-4	-2	-4	5	1	0.000000	0.000000
-4	-2	-4	6	1	-0.000023	0.000153
-4	-2	-4	7	1	0.000025	-0.000010
-4	-2	-4	8	1	-0.000001	0.000008
-4	-2	-4	1	2	-0.000019	0.000011
-4	-2	-4	2	2	0.000265	0.000000
-4	-2	-4	3	2	-0.000017	0.000038
-4	-2	-4	4	2	0.000033	0.000007
-4	-2	-4	5	2	-0.000023	0.000153
-4	-2	-4	6	2	0.000000	0.000000
-4	-2	-4	7	2	-0.000092	0.000039
-4	-2	-4	8	2	0.000010	-0.000031
-4	-2	-4	1	3	-0.000043	-0.000153
-4	-2	-4	2	3	-0.000017	-0.000038
-4	-2	-4	3	3	0.000264	0.000000
-4	-2	-4	4	3	0.000039	0.000030
-4	-2	-4	5	3	0.000025	-0.000010
-4	-2	-4	6	3	0.000092	-0.000039
-4	-2	-4	7	3	0.000000	0.000000
-4	-2	-4	8	3	-0.000009	-0.000007
-4	-2	-4	1	4	-0.000846	-0.000006
-4	-2	-4	2	4	0.000033	-0.000007
-4	-2	-4	3	4	0.000039	-0.000030
-4	-2	-4	4	4	0.000085	0.000000
-4	-2	-4	5	4	-0.000001	0.000008
-4	-2	-4	6	4	-0.000010	0.000031
-4	-2	-4	7	4	0.000009	0.000007
-4	-2	-4	8	4	0.000000	0.000000
-4	-2	-4	1	5	0.000000	0.000000
-4	-2	-4	2	5	0.000023	0.000153
-4	-2	-4	3	5	-0.000025	-0.000010
-4	-2	-4	4	5	0.000001	0.000008
-4	-2	-4	5	5	-0.000580	0.000000
-4	-2	-4	6	5	0.000019	-0.000011
-4	-2	-4	7	5	0.000043	0.000153
-4	-2	-4	8	5	0.000846	0.000006
-4	-2	-4	1	6	0.000023	0.000153
-4	-2	-4	2	6	0.000000	0.000000
-4	-2	-4	3	6	0.000092	0.000039
-4	-2	-4	4	6	-0.000010	-0.000031
-4	-2	-4	5	6	-0.000019	-0.000011
-4	-2	-4	6	6	0.000265	0.000000
-4	-2	-4	7	6	-0.000017	-0.000038
-4	-2	-4	8	6	0.000033	-0.000007
-4	-2	-4	1	7	-0.000025	-0.000010
-4	-2	-4	2	7	-0.000092	-0.000039
-4	-2	-4	3	7	0.000000	0.000000
-4	-2	-4	4	7	0.000009	-0.000007
-4	-2	-4	5	7	-0.000043	0.000153
-4	-2	-4	6	7	-0.000017	0.000038
-4	-2	-4	7	7	0.000264	0.000000
-4	-2	-4	8	7	0.000039	-0.000030
-4	-2	-4	1	8	0.000001	0.000008
-4	-2	-4	2	8	0.000010	0.000031
-4	-2	-4	3	8	-0.000009	0.000007
-4	-2	-4	4	8	0.000000	0.000000
-4	-2	-4	5	8	-0.000846	0.000006
-4	-2	-4	6	8	0.000033	0.000007
-4	-2	-4	7	8	0.000039	0.000030
-4	-2	-4	8	8	0.000085	0.000000
-4	-2	-3	1	1	-0.000681	0.000000
-4	-2	-3	2	1	0.000114	0.000017
-4	-2	-3	3	1	0.000038	-0.000047
-4	-2	-3	4	1	0.000595	0.000023
-4	-2	-3	5	1	0.000000	0.000000
-4	-2	-3	6	1	-0.000015	0.000073
-4	-2	-3	7	1	0.000078	-0.000011
-4	-2	-3	8	1	0.000005	0.000018
-4	-2	-3	1	2	-0.000114	0.000017
-4	-2	-3	2	2	0.000235	0.000000
-4	-2	-3	3	2	-0.000083	0.000075
-4	-2	-3	4	2	0.000300	0.000011
-4	-2	-3	5	2	-0.000015	0.000073
-4	-2	-3	6	2	0.000000	0.000000
-4	-2	-3	7	2	-0.000053	0.000007
-4	-2	-3	8	2	0.000000	-0.000015
-4	-2	-3	1	3	-0.000038	-0.000047
-4	-2	-3	2	3	-0.000083	-0.000075
-4	-2	-3	3	3	0.000334	0.000000
-4	-2	-3	4	3	0.000086	0.000025
-4	-2	-3	5	3	0.000078	-0.000011
-4	-2	-3	6	3	0.000053	-0.000007
-4	-2	-3	7	3	0.000000	0.000000
-4	-2	-3	8	3	-0.000031	0.000001
-4	-2	-3	1	4	-0.000595	0.000023
-4	-2	-3	2	4	0.000300	-0.000011
-4	-2	-3	3	4	0.000086	-0.000025
-4	-2	-3	4	4	0.000130	0.000000
-4	-2	-3	5	4	0.000005	0.000018
-4	-2	-3	6	4	0.000000	0.000015
-4	-2	-3	7	4	0.000031	-0.000001
-4	-2	-3	8	4	0.000000	0.000000
-4	-2	-3	1	5	0.000000	0.000000
-4	-2	-3	2	5	0.000015	0.000073
-4	-2	-3	3	5	-0.000078	-0.000011
-4	-2	-3	4	5	-0.000005	0.000018
-4	-2	-3	5	5	-0.000681	0.000000
-4	-2	-3	6	5	0.000114	-0.000017
-4	-2	-3	7	5	0.000038	0.000047
-4	-2	-3	8	5	0.000595	-0.000023
-4	-2	-3	1	6	0.000015	0.000073
-4	-2	-3	2	6	0.000000	0.000000
-4	-2	-3	3	6	0.000053	0.000007
-4	-2	-3	4	6	0.000000	-0.000015
-4	-2	-3	5	6	-0.000114	-0.000017
-4	-2	-3	6	6	0.000235	0.000000
-4	-2	-3	7	6	-0.000083	-0.000075
-4	-2	-3	8	6	0.000300	-0.000011
-4	-2	-3	1	7	-0.000078	-0.000011
-4	-2	-3	2	7	-0.000053	-0.000007
-4	-2	-3	3	7	0.000000	0.000000
-4	-2	-3	4	7	0.000031	0.000001
-4	-2	-3	5	7	-0.000038	0.000047
-4	-2	-3	6	7	-0.000083	0.000075
-4	-2	-3	7	7	0.000334	0.000000
-4	-2	-3	8	7	0.000086	-0.000025
-4	-2	-3	1	8	-0.000005	0.000018
-4	-2	-3	2	8	0.000000	0.000015
-4	-2	-3	3	8	-0.000031	-0.000001
-4	-2	-3	4	8	0.000000	0.000000
-4	-2	-3	5	8	-0.000595	-0.000023
-4	-2	-3	6	8	0.000300	0.000011
-4	-2	-3	7	8	0.000086	0.000025
-4	-2	-3	8	8	0.000130	0.000000
-4	-2	-2	1	1	-0.000473	0.000000
-4	-2	-2	2	1	0.000461	0.000017
-4	-2	-2	3	1	0.000053	0.000061
-4	-2	-2	4	1	0.000470	0.000021
-4	-2	-2	5	1	0.000000	0.000000
-4	-2	-2	6	1	0.000020	-0.000020
-4	-2	-2	7	1	0.000061	0.000000
-4	-2	-2	8	1	0.000017	0.000020
-4	-2	-2	1	2	-0.000461	0.000017
-4	-2	-2	2	2	0.000155	0.000000
-4	-2	-2	3	2	-0.000034	0.000026
-4	-2	-2	4	2	0.001071	0.000000
-4	-2	-2	5	2	0.000020	-0.000020
-4	-2	-2	6	2	0.000000	0.000000
-4	-2	-2	7	2	0.000003	-0.000008
-4	-2	-2	8	2	0.000000	0.000007
-4	-2	-2	1	3	-0.000053	0.000061
-4	-2	-2	2	3	-0.000034	-0.000026
-4	-2	-2	3	3	0.000652	0.000000
-4	-2	-2	4	3	-0.000030	-0.000003
-4	-2	-2	5	3	0.000061	0.000000
-4	-2	-2	6	3	-0.000003	0.000008
-4	-2	-2	7	3	0.000000	0.000000
-4	-2	-2	8	3	-0.000026	-0.000008
-4	-2	-2	1	4	-0.000470	0.000021
-4	-2	-2	2	4	0.001071	0.000000
-4	-2	-2	3	4	-0.000030	0.000003
-4	-2	-2	4	4	0.000161	0.000000
-4	-2	-2	5	4	0.000017	0.000020
-4	-2	-2	6	4	0.000000	-0.000007
-4	-2	-2	7	4	0.000026	0.000008
-4	-2	-2	8	4	0.000000	0.000000
-4	-2	-2	1	5	0.000000	0.000000
-4	-2	-2	2	5	-0.000020	-0.000020
-4	-2	-2	3	5	-0.000061	0.000000
-4	-2	-2	4	5	-0.000017	0.000020
-4	-2	-2	5	5	-0.000473	0.000000
-4	-2	-2	6	5	0.000461	-0.000017
-4	-2	-2	7	5	0.000053	-0.000061
-4	-2	-2	8	5	0.000470	-0.000021
-4	-2	-2	1	6	-0.000020	-0.000020
-4	-2	-2	2	6	0.000000	0.000000
-4	-2	-2	3	6	-0.000003	-0.000008
-4	-2	-2	4	6	0.000000	0.000007
-4	-2	-2	5	6	-0.000461	-0.000017
-4	-2	-2	6	6	0.000155	0.000000
-4	-2	-2	7	6	-0.000034	-0.000026
-4	-2	-2	8	6	0.001071	0.000000
-4	-2	-2	1	7	-0.000061	0.000000
-4	-2	-2	2	7	0.000003	0.000008
-4	-2	-2	3	7	0.000000	0.000000
-4	-2	-2	4	7	0.000026	-0.000008
-4	-2	-2	5	7	-0.000053	-0.000061
-4	-2	-2	6	7	-0.000034	0.000026
-4	-2	-2	7	7	0.000652	0.000000
-4	-2	-2	8	7	-0.000030	0.000003
-4	-2	-2	1	8	-0.000017	0.000020
-4	-2	-2	2	8	0.000000	-0.000007
-4	-2	-2	3	8	-0.000026	0.000008
-4	-2	-2	4	8	0.000000	0.000000
-4	-2	-2	5	8	-0.000470	-0.000021
-4	-2	-2	6	8	0.001071	0.000000
-4	-2	-2	7	8	-0.000030	-0.000003
-4	-2	-2	8	8	0.000161	0.000000
-4	-2	-1	1	1	-0.001412	0.000000
-4	-2	-1	2	1	0.000970	0.000020
-4	-2	-1	3	1	0.000029	-0.000119
-4	-2	-1	4	1	0.002643	-0.000016
-4	-2	-1	5	1	0.000000	0.000000
-4	-2	-1	6	1	0.000040	-0.000050
-4	-2	-1	7	1	-0.000028	0.000018
-4	-2	-1	8	1	0.000024	0.000035
-4	-2	-1	1	2	-0.000970	0.000020
-4	-2	-1	2	2	-0.000358	0.000000
-4	-2	-1	3	2	0.000243	-0.000030
-4	-2	-1	4	2	0.001692	-0.000005
-4	-2	-1	5	2	0.000040	-0.000050
-4	-2	-1	6	2	0.000000	0.000000
-4	-2	-1	7	2	0.000105	-0.000059
-4	-2	-1	8	2	-0.000066	-0.000002
-4	-2	-1	1	3	-0.000029	-0.000119
-4	-2	-1	2	3	0.000243	0.000030
-4	-2	-1	3	3	0.001374	0.000000
-4	-2	-1	4	3	0.001128	-0.000063
-4	-2	-1	5	3	-0.000028	0.000018
-4	-2	-1	6	3	-0.000105	0.000059
-4	-2	-1	7	3	0.000000	0.000000
-4	-2	-1	8	3	-0.000005	0.000003
-4	-2	-1	1	4	-0.002643	-0.000016
-4	-2	-1	2	4	0.001692	0.000005
-4	-2	-1	3	4	0.001128	0.000063
-4	-2	-1	4	4	0.000751	0.000000
-4	-2	-1	5	4	0.000024	0.000035
-4	-2	-1	6	4	0.000066	0.000002
-4	-2	-1	7	4	0.000005	-0.000003
-4	-2	-1	8	4	0.000000	0.000000
-4	-2	-1	1	5	0.000000	0.000000
-4	-2	-1	2	5	-0.000040	-0.000050
-4	-2	-1	3	5	0.000028	0.000018
-4	-2	-1	4	5	-0.000024	0.000035
-4	-2	-1	5	5	-0.001412	0.000000
-4	-2	-1	6	5	0.000970	-0.000020
-4	-2	-1	7	5	0.000029	0.000119
-4	-2	-1	8	5	0.002643	0.000016
-4	-2	-1	1	6	-0.000040	-0.000050
-4	-2	-1	2	6	0.000000	0.000000
-4	-2	-1	3	6	-0.000105	-0.000059
-4	-2	-1	4	6	0.000066	-0.000002
-4	-2	-1	5	6	-0.000970	-0.000020
-4	-2	-1	6	6	-0.000358	0.000000
-4	-2	-1	7	6	0.000243	0.000030
-4	-2	-1	8	6	0.001692	0.000005
-4	-2	-1	1	7	0.000028	0.000018
-4	-2	-1	2	7	0.000105	0.000059
-4	-2	-1	3	7	0.000000	0.000000
-4	-2	-1	4	7	0.000005	0.000003
-4	-2	-1	5	7	-0.000029	0.000119
-4	-2	-1	6	7	0.000243	-0.000030
-4	-2	-1	7	7	0.001374	0.000000
-4	-2	-1	8	7	0.001128	0.000063
-4	-2	-1	1	8	-0.000024	0.000035
-4	-2	-1	2	8	-0.000066	0.000002
-4	-2	-1	3	8	-0.000005	-0.000003
-4	-2	-1	4	8	0.000000	0.000000
-4	-2	-1	5	8	-0.002643	0.000016
-4	-2	-1	6	8	0.001692	-0.000005
-4	-2	-1	7	8	0.001128	-0.000063
-4	-2	-1	8	8	0.000751	0.000000
-4	-2	0	1	1	-0.004460	0.000000
-4	-2	0	2	1	-0.000084	0.000002
-4	-2	0	3	1	0.000882	-0.000329
-4	-2	0	4	1	0.006307	-0.000016
-4	-2	0	5	1	0.000000	0.000000
-4	-2	0	6	1	0.000044	-0.000050
-4	-2	0	7	1	0.000002	0.000002
-4	-2	0	8	1	0.000007	-0.000003
-4	-2	0	1	2	0.000084	0.000002
-4	-2	0	2	2	-0.000863	0.000000
-4	-2	0	3	2	-0.000003	-0.000002
-4	-2	0	4	2	0.000012	0.000001
-4	-2	0	5	2	0.000044	-0.000050
-4	-2	0	6	2	0.000000	0.000000
-4	-2	0	7	2	0.000186	-0.000053
-4	-2	0	8	2	-0.000111	-0.000008
-4	-2	0	1	3	-0.000882	-0.000329
-4	-2	0	2	3	-0.000003	0.000002
-4	-2	0	3	3	0.001536	0.000000
-4	-2	0	4	3	0.003168	0.000038
-4	-2	0	5	3	0.000002	0.000002
-4	-2	0	6	3	-0.000186	0.000053
-4	-2	0	7	3	0.000000	0.000000
-4	-2	0	8	3	-0.000011	0.000003
-4	-2	0	1	4	-0.006307	-0.000016
-4	-2	0	2	4	0.000012	-0.000001
-4	-2	0	3	4	0.003168	-0.000038
-4	-2	0	4	4	0.001817	0.000000
-4	-2	0	5	4	0.000007	-0.000003
-4	-2	0	6	4	0.000111	0.000008
-4	-2	0	7	4	0.000011	-0.000003
-4	-2	0	8	4	0.000000	0.000000
-4	-2	0	1	5	0.000000	0.000000
-4	-2	0	2	5	-0.000044	-0.000050
-4	-2	0	3	5	-0.000002	0.000002
-4	-2	0	4	5	-0.000007	-0.000003
-4	-2	0	5	5	-0.004460	0.000000
-4	-2	0	6	5	-0.000084	-0.000002
-4	-2	0	7	5	0.000882	0.000329
-4	-2	0	8	5	0.006307	0.000016
-4	-2	0	1	6	-0.000044	-0.000050
-4	-2	0	2	6	0.000000	0.000000
-4	-2	0	3	6	-0.000186	-0.000053
-4	-2	0	4	6	0.000111	-0.000008
-4	-2	0	5	6	0.000084	-0.000002
-4	-2	0	6	6	-0.000863	0.000000
-4	-2	0	7	6	-0.000003	0.000002
-4	-2	0	8	6	0.000012	-0.000001
-4	-2	0	1	7	-0.000002	0.000002
-4	-2	0	2	7	0.000186	0.000053
-4	-2	0	3	7	0.000000	0.000000
-4	-2	0	4	7	0.000011	0.000003
-4	-2	0	5	7	-0.000882	0.000329
-4	-2	0	6	7	-0.000003	-0.000002
-4	-2	0	7	7	0.001536	0.000000
-4	-2	0	8	7	0.003168	-0.000038
-4	-2	0	1	8	-0.000007	-0.000003
-4	-2	0	2	8	-0.000111	0.000008
-4	-2	0	3	8	-0.000011	-0.000003
-4	-2	0	4	8	0.000000	0.000000
-4	-2	0	5	8	-0.006307	0.000016
-4	-2	0	6	8	0.000012	0.000001
-4	-2	0	7	8	0.003168	0.000038
-4	-2	0	8	8	0.001817	0.000000
-4	-2	1	1	1	-0.001384	0.000000
-4	-2	1	2	1	-0.001085	-0.000018
-4	-2	1	3	1	0.000034	-0.000108
-4	-2	1	4	1	0.002690	-0.000029
-4	-2	1	5	1	0.000000	0.000000
-4	-2	1	6	1	0.000029	-0.000040
-4	-2	1	7	1	0.000030	-0.000007
-4	-2	1	8	1	-0.000014	-0.000050
-4	-2	1	1	2	0.001085	-0.000018
-4	-2	1	2	2	-0.000404	0.000000
-4	-2	1	3	2	-0.000271	0.000029
-4	-2	1	4	2	-0.001686	0.000010
-4	-2	1	5	2	0.000029	-0.000040
-4	-2	1	6	2	0.000000	0.000000
-4	-2	1	7	2	0.000105	-0.000054
-4	-2	1	8	2	-0.000068	0.000006
-4	-2	1	1	3	-0.000034	-0.000108
-4	-2	1	2	3	-0.000271	-0.000029
-4	-2	1	3	3	0.001371	0.000000
-4	-2	1	4	3	0.001331	-0.000083
-4	-2	1	5	3	0.000030	-0.000007
-4	-2	1	6	3	-0.000105	0.000054
-4	-2	1	7	3	0.000000	0.000000
-4	-2	1	8	3	0.000013	-0.000002
-4	-2	1	1	4	-0.002690	-0.000029
-4	-2	1	2	4	-0.001686	-0.000010
-4	-2	1	3	4	0.001331	0.000083
-4	-2	1	4	4	0.000639	0.000000
-4	-2	1	5	4	-0.000014	-0.000050
-4	-2	1	6	4	0.000068	-0.000006
-4	-2	1	7	4	-0.000013	0.000002
-4	-2	1	8	4	0.000000	0.000000
-4	-2	1	1	5	0.000000	0.000000
-4	-2	1	2	5	-0.000029	-0.000040
-4	-2	1	3	5	-0.000030	-0.000007
-4	-2	1	4	5	0.000014	-0.000050
-4	-2	1	5	5	-0.001384	0.000000
-4	-2	1	6	5	-0.001085	0.000018
-4	-2	1	7	5	0.000034	0.000108
-4	-2	1	8	5	0.002690	0.000029
-4	-2	1	1	6	-0.000029	-0.000040
-4	-2	1	2	6	0.000000	0.000000
-4	-2	1	3	6	-0.000105	-0.000054
-4	-2	1	4	6	0.000068	0.000006
-4	-2	1	5	6	0.001085	0.000018
-4	-2	1	6	6	-0.000404	0.000000
-4	-2	1	7	6	-0.000271	-0.000029
-4	-2	1	8	6	-0.001686	-0.000010
-4	-2	1	1	7	-0.000030	-0.000007
-4	-2	1	2	7	0.000105	0.000054
-4	-2	1	3	7	0.000000	0.000000
-4	-2	1	4	7	-0.000013	-0.000002
-4	-2	1	5	7	-0.000034	0.000108
-4	-2	1	6	7	-0.000271	0.000029
-4	-2	1	7	7	0.001371	0.000000
-4	-2	1	8	7	0.001331	0.000083
-4	-2	1	1	8	0.000014	-0.000050
-4	-2	1	2	8	-0.000068	-0.000006
-4	-2	1	3	8	0.000013	0.000002
-4	-2	1	4	8	0.000000	0.000000
-4	-2	1	5	8	-0.002690	0.000029
-4	-2	1	6	8	-0.001686	0.000010
-4	-2	1	7	8	0.001331	-0.000083
-4	-2	1	8	8	0.000639	0.000000
-4	-2	2	1	1	-0.000462	0.000000
-4	-2	2	2	1	-0.000501	-0.000017
-4	-2	2	3	1	-0.000034	0.000063
-4	-2	2	4	1	0.000530	0.000002
-4	-2	2	5	1	0.000000	0.000000
-4	-2	2	6	1	0.000001	-0.000001
-4	-2	2	7	1	-0.000052	-0.000001
-4	-2	2	8	1	-0.000016	-0.000026
-4	-2	2	1	2	0.000501	-0.000017
-4	-2	2	2	2	0.000173	0.000000
-4	-2	2	3	2	0.000005	-0.000026
-4	-2	2	4	2	-0.001079	0.000001
-4	-2	2	5	2	0.000001	-0.000001
-4	-2	2	6	2	0.000000	0.000000
-4	-2	2	7	2	-0.000010	-0.000011
-4	-2	2	8	2	-0.000003	0.000000
-4	-2	2	1	3	0.000034	0.000063
-4	-2	2	2	3	0.000005	0.000026
-4	-2	2	3	3	0.000856	0.000000
-4	-2	2	4	3	-0.000056	0.000005
-4	-2	2	5	3	-0.000052	-0.000001
-4	-2	2	6	3	0.000010	0.000011
-4	-2	2	7	3	0.000000	0.000000
-4	-2	2	8	3	0.000027	0.000000
-4	-2	2	1	4	-0.000530	0.000002
-4	-2	2	2	4	-0.001079	-0.000001
-4	-2	2	3	4	-0.000056	-0.000005
-4	-2	2	4	4	0.000226	0.000000
-4	-2	2	5	4	-0.000016	-0.000026
-4	-2	2	6	4	0.000003	0.000000
-4	-2	2	7	4	-0.000027	0.000000
-4	-2	2	8	4	0.000000	0.000000
-4	-2	2	1	5	0.000000	0.000000
-4	-2	2	2	5	-0.000001	-0.000001
-4	-2	2	3	5	0.000052	-0.000001
-4	-2	2	4	5	0.000016	-0.000026
-4	-2	2	5	5	-0.000462	0.000000
-4	-2	2	6	5	-0.000501	0.000017
-4	-2	2	7	5	-0.000034	-0.000063
-4	-2	2	8	5	0.000530	-0.000002
-4	-2	2	1	6	-0.000001	-0.000001
-4	-2	2	2	6	0.000000	0.000000
-4	-2	2	3	6	0.000010	-0.000011
-4	-2	2	4	6	0.000003	0.000000
-4	-2	2	5	6	0.000501	0.000017
-4	-2	2	6	6	0.000173	0.000000
-4	-2	2	7	6	0.000005	0.000026
-4	-2	2	8	6	-0.001079	-0.000001
-4	-2	2	1	7	0.000052	-0.000001
-4	-2	2	2	7	-0.000010	0.000011
-4	-2	2	3	7	0.000000	0.000000
-4	-2	2	4	7	-0.000027	0.000000
-4	-2	2	5	7	0.000034	-0.000063
-4	-2	2	6	7	0.000005	-0.000026
-4	-2	2	7	7	0.000856	0.000000
-4	-2	2	8	7	-0.000056	-0.000005
-4	-2	2	1	8	0.000016	-0.000026
-4	-2	2	2	8	-0.000003	0.000000
-4	-2	2	3	8	0.000027	0.000000
-4	-2	2	4	8	0.000000	0.000000
-4	-2	2	5	8	-0.000530	-0.000002
-4	-2	2	6	8	-0.001079	0.000001
-4	-2	2	7	8	-0.000056	0.000005
-4	-2	2	8	8	0.000226	0.000000
-4	-2	3	1	1	-0.000706	0.000000
-4	-2	3	2	1	-0.000143	-0.000013
-4	-2	3	3	1	0.000061	-0.000059
-4	-2	3	4	1	0.000634	0.000025
-4	-2	3	5	1	0.000000	0.000000
-4	-2	3	6	1	-0.000031	0.000088
-4	-2	3	7	1	-0.000071	0.000001
-4	-2	3	8	1	-0.000009	-0.000009
-4	-2	3	1	2	0.000143	-0.000013
-4	-2	3	2	2	0.000331	0.000000
-4	-2	3	3	2	0.000070	-0.000075
-4	-2	3	4	2	-0.000366	-0.000007
-4	-2	3	5	2	-0.000031	0.000088
-4	-2	3	6	2	0.000000	0.000000
-4	-2	3	7	2	-0.000068	0.000008
-4	-2	3	8	2	0.000002	-0.000030
-4	-2	3	1	3	-0.000061	-0.000059
-4	-2	3	2	3	0.000070	0.000075
-4	-2	3	3	3	0.000372	0.000000
-4	-2	3	4	3	0.000067	0.000019
-4	-2	3	5	3	-0.000071	0.000001
-4	-2	3	6	3	0.000068	-0.000008
-4	-2	3	7	3	0.000000	0.000000
-4	-2	3	8	3	0.000024	0.000010
-4	-2	3	1	4	-0.000634	0.000025
-4	-2	3	2	4	-0.000366	0.000007
-4	-2	3	3	4	0.000067	-0.000019
-4	-2	3	4	4	0.000165	0.000000
-4	-2	3	5	4	-0.000009	-0.000009
-4	-2	3	6	4	-0.000002	0.000030
-4	-2	3	7	4	-0.000024	-0.000010
-4	-2	3	8	4	0.000000	0.000000
-4	-2	3	1	5	0.000000	0.000000
-4	-2	3	2	5	0.000031	0.000088
-4	-2	3	3	5	0.000071	0.000001
-4	-2	3	4	5	0.000009	-0.000009
-4	-2	3	5	5	-0.000706	0.000000
-4	-2	3	6	5	-0.000143	0.000013
-4	-2	3	7	5	0.000061	0.000059
-4	-2	3	8	5	0.000634	-0.000025
-4	-2	3	1	6	0.000031	0.000088
-4	-2	3	2	6	0.000000	0.000000
-4	-2	3	3	6	0.000068	0.000008
-4	-2	3	4	6	-0.000002	-0.000030
-4	-2	3	5	6	0.000143	0.000013
-4	-2	3	6	6	0.000331	0.000000
-4	-2	3	7	6	0.000070	0.000075
-4	-2	3	8	6	-0.000366	0.000007
-4	-2	3	1	7	0.000071	0.000001
-4	-2	3	2	7	-0.000068	-0.000008
-4	-2	3	3	7	0.000000	0.000000
-4	-2	3	4	7	-0.000024	0.000010
-4	-2	3	5	7	-0.000061	0.000059
-4	-2	3	6	7	0.000070	-0.000075
-4	-2	3	7	7	0.000372	0.000000
-4	-2	3	8	7	0.000067	-0.000019
-4	-2	3	1	8	0.000009	-0.000009
-4	-2	3	2	8	0.000002	0.000030
-4	-2	3	3	8	0.000024	-0.000010
-4	-2	3	4	8	0.000000	0.000000
-4	-2	3	5	8	-0.000634	-0.000025
-4	-2	3	6	8	-0.000366	-0.000007
-4	-2	3	7	8	0.000067	0.000019
-4	-2	3	8	8	0.000165	0.000000
-4	-2	4	1	1	-0.000564	0.000000
-4	-2	4	2	1	-0.000093	-0.000012
-4	-2	4	3	1	0.000070	-0.000162
-4	-2	4	4	1	0.000876	0.000005
-4	-2	4	5	1	0.000000	0.000000
-4	-2	4	6	1	-0.000028	0.000161
-4	-2	4	7	1	-0.000026	0.000012
-4	-2	4	8	1	-0.000004	0.000003
-4	-2	4	1	2	0.000093	-0.000012
-4	-2	4	2	2	0.000320	0.000000
-4	-2	4	3	2	-0.000022	-0.000041
-4	-2	4	4	2	-0.000069	-0.000013
-4	-2	4	5	2	-0.000028	0.000161
-4	-2	4	6	2	0.000000	0.000000
-4	-2	4	7	2	-0.000098	0.000040
-4	-2	4	8	2	0.000012	-0.000041
-4	-2	4	1	3	-0.000070	-0.000162
-4	-2	4	2	3	-0.000022	0.000041
-4	-2	4	3	3	0.000278	0.000000
-4	-2	4	4	3	0.000073	0.000022
-4	-2	4	5	3	-0.000026	0.000012
-4	-2	4	6	3	0.000098	-0.000040
-4	-2	4	7	3	0.000000	0.000000
-4	-2	4	8	3	0.000009	0.000002
-4	-2	4	1	4	-0.000876	0.000005
-4	-2	4	2	4	-0.000069	0.000013
-4	-2	4	3	4	0.000073	-0.000022
-4	-2	4	4	4	0.000089	0.000000
-4	-2	4	5	4	-0.000004	0.000003
-4	-2	4	6	4	-0.000012	0.000041
-4	-2	4	7	4	-0.000009	-0.000002
-4	-2	4	8	4	0.000000	0.000000
-4	-2	4	1	5	0.000000	0.000000
-4	-2	4	2	5	0.000028	0.000161
-4	-2	4	3	5	0.000026	0.000012
-4	-2	4	4	5	0.000004	0.000003
-4	-2	4	5	5	-0.000564	0.000000
-4	-2	4	6	5	-0.000093	0.000012
-4	-2	4	7	5	0.000070	0.000162
-4	-2	4	8	5	0.000876	-0.000005
-4	-2	4	1	6	0.000028	0.000161
-4	-2	4	2	6	0.000000	0.000000
-4	-2	4	3	6	0.000098	0.000040
-4	-2	4	4	6	-0.000012	-0.000041
-4	-2	4	5	6	0.000093	0.000012
-4	-2	4	6	6	0.000320	0.000000
-4	-2	4	7	6	-0.000022	0.000041
-4	-2	4	8	6	-0.000069	0.000013
-4	-2	4	1	7	0.000026	0.000012
-4	-2	4	2	7	-0.000098	-0.000040
-4	-2	4	3	7	0.000000	0.000000
-4	-2	4	4	7	-0.000009	0.000002
-4	-2	4	5	7	-0.000070	0.000162
-4	-2	4	6	7	-0.000022	-0.000041
-4	-2	4	7	7	0.000278	0.000000
-4	-2	4	8	7	0.000073	-0.000022
-4	-2	4	1	8	0.000004	0.000003
-4	-2	4	2	8	0.000012	0.000041
-4	-2	4	3	8	0.000009	-0.000002
-4	-2	4	4	8	0.000000	0.000000
-4	-2	4	5	8	-0.000876	-0.000005
-4	-2	4	6	8	-0.000069	-0.000013
-4	-2	4	7	8	0.000073	0.000022
-4	-2	4	8	8	0.000089	0.000000
-4	-1	-4	1	1	-0.001536	0.000000
-4	-1	-4	2	1	0.000332	0.000004
-4	-1	-4	3	1	0.000381	-0.000150
-4	-1	-4	4	1	0.000917	0.000008
-4	-1	-4	5	1	0.000000	0.000000
-4	-1	-4	6	1	0.000043	0.000150
-4	-1	-4	7	1	-0.000040	-0.000004
-4	-1	-4	8	1	0.000000	-0.000006
-4	-1	-4	1	2	-0.000332	0.000004
-4	-1	-4	2	2	0.001057	0.000000
-4	-1	-4	3	2	0.000116	0.000035
-4	-1	-4	4	2	0.000151	0.000028
-4	-1	-4	5	2	0.000043	0.000150
-4	-1	-4	6	2	0.000000	0.000000
-4	-1	-4	7	2	-0.000164	0.000037
-4	-1	-4	8	2	-0.000012	-0.000012
-4	-1	-4	1	3	-0.000381	-0.000150
-4	-1	-4	2	3	0.000116	-0.000035
-4	-1	-4	3	3	0.001060	0.000000
-4	-1	-4	4	3	0.000136	0.000013
-4	-1	-4	5	3	-0.000040	-0.000004
-4	-1	-4	6	3	0.000164	-0.000037
-4	-1	-4	7	3	0.000000	0.000000
-4	-1	-4	8	3	0.000014	-0.000028
-4	-1	-4	1	4	-0.000917	0.000008
-4	-1	-4	2	4	0.000151	-0.000028
-4	-1	-4	3	4	0.000136	-0.000013
-4	-1	-4	4	4	-0.000323	0.000000
-4	-1	-4	5	4	0.000000	-0.000006
-4	-1	-4	6	4	0.000012	0.000012
-4	-1	-4	7	4	-0.000014	0.000028
-4	-1	-4	8	4	0.000000	0.000000
-4	-1	-4	1	5	0.000000	0.000000
-4	-1	-4	2	5	-0.000043	0.000150
-4	-1	-4	3	5	0.000040	-0.000004
-4	-1	-4	4	5	0.000000	-0.000006
-4	-1	-4	5	5	-0.001536	0.000000
-4	-1	-4	6	5	0.000332	-0.000004
-4	-1	-4	7	5	0.000381	0.000150
-4	-1	-4	8	5	0.000917	-0.000008
-4	-1	-4	1	6	-0.000043	0.000150
-4	-1	-4	2	6	0.000000	0.000000
-4	-1	-4	3	6	0.000164	0.000037
-4	-1	-4	4	6	0.000012	-0.000012
-4	-1	-4	5	6	-0.000332	-0.000004
-4	-1	-4	6	6	0.001057	0.000000
-4	-1	-4	7	6	0.000116	-0.000035
-4	-1	-4	8	6	0.000151	-0.000028
-4	-1	-4	1	7	0.000040	-0.000004
-4	-1	-4	2	7	-0.000164	-0.000037
-4	-1	-4	3	7	0.000000	0.000000
-4	-1	-4	4	7	-0.000014	-0.000028
-4	-1	-4	5	7	-0.000381	0.000150
-4	-1	-4	6	7	0.000116	0.000035
-4	-1	-4	7	7	0.001060	0.000000
-4	-1	-4	8	7	0.000136	-0.000013
-4	-1	-4	1	8	0.000000	-0.000006
-4	-1	-4	2	8	-0.000012	0.000012
-4	-1	-4	3	8	0.000014	0.000028
-4	-1	-4	4	8	0.000000	0.000000
-4	-1	-4	5	8	-0.000917	-0.000008
-4	-1	-4	6	8	0.000151	0.000028
-4	-1	-4	7	8	0.000136	0.000013
-4	-1	-4	8	8	-0.000323	0.000000
-4	-1	-3	1	1	-0.001872	0.000000
-4	-1	-3	2	1	0.000995	0.000024
-4	-1	-3	3	1	0.000532	-0.000047
-4	-1	-3	4	1	0.000902	0.000028
-4	-1	-3	5	1	0.000000	0.000000
-4	-1	-3	6	1	0.000017	0.000074
-4	-1	-3	7	1	-0.000038	-0.000027
-4	-1	-3	8	1	-0.000003	0.000007
-4	-1	-3	1	2	-0.000995	0.000024
-4	-1	-3	2	2	0.001022	0.000000
-4	-1	-3	3	2	0.000263	0.000047
-4	-1	-3	4	2	0.000590	0.000053
-4	-1	-3	5	2	0.000017	0.000074
-4	-1	-3	6	2	0.000000	0.000000
-4	-1	-3	7	2	-0.000076	0.000034
-4	-1	-3	8	2	0.000001	0.000004
-4	-1	-3	1	3	-0.000532	-0.000047
-4	-1	-3	2	3	0.000263	-0.000047
-4	-1	-3	3	3	0.001156	0.000000
-4	-1	-3	4	3	0.000159	0.000004
-4	-1	-3	5	3	-0.000038	-0.000027
-4	-1	-3	6	3	0.000076	-0.000034
-4	-1	-3	7	3	0.000000	0.000000
-4	-1	-3	8	3	0.000017	-0.000037
-4	-1	-3	1	4	-0.000902	0.000028
-4	-1	-3	2	4	0.000590	-0.000053
-4	-1	-3	3	4	0.000159	-0.000004
-4	-1	-3	4	4	-0.000310	0.000000
-4	-1	-3	5	4	-0.000003	0.000007
-4	-1	-3	6	4	-0.000001	-0.000004
-4	-1	-3	7	4	-0.000017	0.000037
-4	-1	-3	8	4	0.000000	0.000000
-4	-1	-3	1	5	0.000000	0.000000
-4	-1	-3	2	5	-0.000017	0.000074
-4	-1	-3	3	5	0.000038	-0.000027
-4	-1	-3	4	5	0.000003	0.000007
-4	-1	-3	5	5	-0.001872	0.000000
-4	-1	-3	6	5	0.000995	-0.000024
-4	-1	-3	7	5	0.000532	0.000047
-4	-1	-3	8	5	0.000902	-0.000028
-4	-1	-3	1	6	-0.000017	0.000074
-4	-1	-3	2	6	0.000000	0.000000
-4	-1	-3	3	6	0.000076	0.000034
-4	-1	-3	4	6	-0.000001	0.000004
-4	-1	-3	5	6	-0.000995	-0.000024
-4	-1	-3	6	6	0.001022	0.000000
-4	-1	-3	7	6	0.000263	-0.000047
-4	-1	-3	8	6	0.000590	-0.000053
-4	-1	-3	1	7	0.000038	-0.000027
-4	-1	-3	2	7	-0.000076	-0.000034
-4	-1	-3	3	7	0.000000	0.000000
-4	-1	-3	4	7	-0.000017	-0.000037
-4	-1	-3	5	7	-0.000532	0.000047
-4	-1	-3	6	7	0.000263	0.000047
-4	-1	-3	7	7	0.001156	0.000000
-4	-1	-3	8	7	0.000159	-0.000004
-4	-1	-3	1	8	0.000003	0.000007
-4	-1	-3	2	8	0.000001	-0.000004
-4	-1	-3	3	8	0.000017	0.000037
-4	-1	-3	4	8	0.000000	0.000000
-4	-1	-3	5	8	-0.000902	-0.000028
-4	-1	-3	6	8	0.000590	0.000053
-4	-1	-3	7	8	0.000159	0.000004
-4	-1	-3	8	8	-0.000310	0.000000
-4	-1	-2	1	1	-0.001396	0.000000
-4	-1	-2	2	1	0.002600	0.000025
-4	-1	-2	3	1	0.000022	-0.000029
-4	-1	-2	4	1	0.000988	0.000040
-4	-1	-2	5	1	0.000000	0.000000
-4	-1	-2	6	1	-0.000017	-0.000035
-4	-1	-2	7	1	-0.000118	-0.000018
-4	-1	-2	8	1	0.000020	0.000050
-4	-1	-2	1	2	-0.002600	0.000025
-4	-1	-2	2	2	0.000728	0.000000
-4	-1	-2	3	2	0.001104	0.000004
-4	-1	-2	4	2	0.001719	0.000066
-4	-1	-2	5	2	-0.000017	-0.000035
-4	-1	-2	6	2	0.000000	0.000000
-4	-1	-2	7	2	0.000063	0.000002
-4	-1	-2	8	2	0.000004	-0.000002
-4	-1	-2	1	3	-0.000022	-0.000029
-4	-1	-2	2	3	0.001104	-0.000004
-4	-1	-2	3	3	0.001359	0.000000
-4	-1	-2	4	3	0.000249	-0.000105
-4	-1	-2	5	3	-0.000118	-0.000018
-4	-1	-2	6	3	-0.000063	-0.000002
-4	-1	-2	7	3	0.000000	0.000000
-4	-1	-2	8	3	0.000031	-0.000059
-4	-1	-2	1	4	-0.000988	0.000040
-4	-1	-2	2	4	0.001719	-0.000066
-4	-1	-2	3	4	0.000249	0.000105
-4	-1	-2	4	4	-0.000337	0.000000
-4	-1	-2	5	4	0.000020	0.000050
-4	-1	-2	6	4	-0.000004	0.000002
-4	-1	-2	7	4	-0.000031	0.000059
-4	-1	-2	8	4	0.000000	0.000000
-4	-1	-2	1	5	0.000000	0.000000
-4	-1	-2	2	5	0.000017	-0.000035
-4	-1	-2	3	5	0.000118	-0.000018
-4	-1	-2	4	5	-0.000020	0.000050
-4	-1	-2	5	5	-0.001396	0.000000
-4	-1	-2	6	5	0.002600	-0.000025
-4	-1	-2	7	5	0.000022	0.000029
-4	-1	-2	8	5	0.000988	-0.000040
-4	-1	-2	1	6	0.000017	-0.000035
-4	-1	-2	2	6	0.000000	0.000000
-4	-1	-2	3	6	-0.000063	0.000002
-4	-1	-2	4	6	-0.000004	-0.000002
-4	-1	-2	5	6	-0.002600	-0.000025
-4	-1	-2	6	6	0.000728	0.000000
-4	-1	-2	7	6	0.001104	-0.000004
-4	-1	-2	8	6	0.001719	-0.000066
-4	-1	-2	1	7	0.000118	-0.000018
-4	-1	-2	2	7	0.000063	-0.000002
-4	-1	-2	3	7	0.000000	0.000000
-4	-1	-2	4	7	-0.000031	-0.000059
-4	-1	-2	5	7	-0.000022	0.000029
-4	-1	-2	6	7	0.001104	0.000004
-4	-1	-2	7	7	0.001359	0.000000
-4	-1	-2	8	7	0.000249	0.000105
-4	-1	-2	1	8	-0.000020	0.000050
-4	-1	-2	2	8	0.000004	0.000002
-4	-1	-2	3	8	0.000031	0.000059
-4	-1	-2	4	8	0.000000	0.000000
-4	-1	-2	5	8	-0.000988	-0.000040
-4	-1	-2	6	8	0.001719	0.000066
-4	-1	-2	7	8	0.000249	-0.000105
-4	-1	-2	8	8	-0.000337	0.000000
-4	-1	-1	1	1	-0.005392	0.000000
-4	-1	-1	2	1	0.004631	0.000037
-4	-1	-1	3	1	0.001968	-0.000121
-4	-1	-1	4	1	0.004695	0.000037
-4	-1	-1	5	1	0.000000	0.000000
-4	-1	-1	6	1	0.000035	-0.000059
-4	-1	-1	7	1	-0.000120	0.000000
-4	-1	-1	8	1	0.000036	0.000059
-4	-1	-1	1	2	-0.004631	0.000037
-4	-1	-1	2	2	-0.001482	0.000000
-4	-1	-1	3	2	0.002697	0.000039
-4	-1	-1	4	2	0.002489	0.000002
-4	-1	-1	5	2	0.000035	-0.000059
-4	-1	-1	6	2	0.000000	0.000000
-4	-1	-1	7	2	0.000191	-0.000028
-4	-1	-1	8	2	-0.000002	-0.000011
-4	-1	-1	1	3	-0.001968	-0.000121
-4	-1	-1	2	3	0.002697	-0.000039
-4	-1	-1	3	3	0.008458	0.000000
-4	-1	-1	4	3	0.002735	-0.000191
-4	-1	-1	5	3	-0.000120	0.000000
-4	-1	-1	6	3	-0.000191	0.000028
-4	-1	-1	7	3	0.000000	0.000000
-4	-1	-1	8	3	-0.000040	-0.000028
-4	-1	-1	1	4	-0.004695	0.000037
-4	-1	-1	2	4	0.002489	-0.000002
-4	-1	-1	3	4	0.002735	0.000191
-4	-1	-1	4	4	-0.001448	0.000000
-4	-1	-1	5	4	0.000036	0.000059
-4	-1	-1	6	4	0.000002	0.000011
-4	-1	-1	7	4	0.000040	0.000028
-4	-1	-1	8	4	0.000000	0.000000
-4	-1	-1	1	5	0.000000	0.000000
-4	-1	-1	2	5	-0.000035	-0.000059
-4	-1	-1	3	5	0.000120	0.000000
-4	-1	-1	4	5	-0.000036	0.000059
-4	-1	-1	5	5	-0.005392	0.000000
-4	-1	-1	6	5	0.004631	-0.000037
-4	-1	-1	7	5	0.001968	0.000121
-4	-1	-1	8	5	0.004695	-0.000037
-4	-1	-1	1	6	-0.000035	-0.000059
-4	-1	-1	2	6	0.000000	0.000000
-4	-1	-1	3	6	-0.000191	-0.000028
-4	-1	-1	4	6	0.000002	-0.000011
-4	-1	-1	5	6	-0.004631	-0.000037
-4	-1	-1	6	6	-0.001482	0.000000
-4	-1	-1	7	6	0.002697	-0.000039
-4	-1	-1	8	6	0.002489	-0.000002
-4	-1	-1	1	7	0.000120	0.000000
-4	-1	-1	2	7	0.000191	0.000028
-4	-1	-1	3	7	0.000000	0.000000
-4	-1	-1	4	7	0.000040	-0.000028
-4	-1	-1	5	7	-0.001968	0.000121
-4	-1	-1	6	7	0.002697	0.000039
-4	-1	-1	7	7	0.008458	0.000000
-4	-1	-1	8	7	0.002735	0.000191
-4	-1	-1	1	8	-0.000036	0.000059
-4	-1	-1	2	8	-0.000002	0.000011
-4	-1	-1	3	8	-0.000040	0.000028
-4	-1	-1	4	8	0.000000	0.000000
-4	-1	-1	5	8	-0.004695	-0.000037
-4	-1	-1	6	8	0.002489	0.000002
-4	-1	-1	7	8	0.002735	-0.000191
-4	-1	-1	8	8	-0.001448	0.000000
-4	-1	0	1	1	-0.017324	0.000000
-4	-1	0	2	1	-0.000081	0.000008
-4	-1	0	3	1	0.009056	-0.000251
-4	-1	0	4	1	0.011743	0.000184
-4	-1	0	5	1	0.000000	0.000000
-4	-1	0	6	1	0.000191	0.000072
-4	-1	0	7	1	0.000022	-0.000005
-4	-1	0	8	1	0.000006	-0.000011
-4	-1	0	1	2	0.000081	0.000008
-4	-1	0	2	2	-0.003339	0.000000
-4	-1	0	3	2	0.000094	-0.000002
-4	-1	0	4	2	0.000013	0.000000
-4	-1	0	5	2	0.000191	0.000072
-4	-1	0	6	2	0.000000	0.000000
-4	-1	0	7	2	0.000126	-0.000092
-4	-1	0	8	2	0.000002	-0.000046
-4	-1	0	1	3	-0.009056	-0.000251
-4	-1	0	2	3	0.000094	0.000002
-4	-1	0	3	3	0.023951	0.000000
-4	-1	0	4	3	0.007169	0.000364
-4	-1	0	5	3	0.000022	-0.000005
-4	-1	0	6	3	-0.000126	0.000092
-4	-1	0	7	3	0.000000	0.000000
-4	-1	0	8	3	-0.000006	-0.000004
-4	-1	0	1	4	-0.011743	0.000184
-4	-1	0	2	4	0.000013	0.000000
-4	-1	0	3	4	0.007169	-0.000364
-4	-1	0	4	4	-0.001764	0.000000
-4	-1	0	5	4	0.000006	-0.000011
-4	-1	0	6	4	-0.000002	0.000046
-4	-1	0	7	4	0.000006	0.000004
-4	-1	0	8	4	0.000000	0.000000
-4	-1	0	1	5	0.000000	0.000000
-4	-1	0	2	5	-0.000191	0.000072
-4	-1	0	3	5	-0.000022	-0.000005
-4	-1	0	4	5	-0.000006	-0.000011
-4	-1	0	5	5	-0.017324	0.000000
-4	-1	0	6	5	-0.000081	-0.000008
-4	-1	0	7	5	0.009056	0.000251
-4	-1	0	8	5	0.011743	-0.000184
-4	-1	0	1	6	-0.000191	0.000072
-4	-1	0	2	6	0.000000	0.000000
-4	-1	0	3	6	-0.000126	-0.000092
-4	-1	0	4	6	-0.000002	-0.000046
-4	-1	0	5	6	0.000081	-0.000008
-4	-1	0	6	6	-0.003339	0.000000
-4	-1	0	7	6	0.000094	0.000002
-4	-1	0	8	6	0.000013	0.000000
-4	-1	0	1	7	-0.000022	-0.000005
-4	-1	0	2	7	0.000126	0.000092
-4	-1	0	3	7	0.000000	0.000000
-4	-1	0	4	7	0.000006	-0.000004
-4	-1	0	5	7	-0.009056	0.000251
-4	-1	0	6	7	0.000094	-0.000002
-4	-1	0	7	7	0.023951	0.000000
-4	-1	0	8	7	0.007169	-0.000364
-4	-1	0	1	8	-0.000006	-0.000011
-4	-1	0	2	8	0.000002	0.000046
-4	-1	0	3	8	-0.000006	0.000004
-4	-1	0	4	8	0.000000	0.000000
-4	-1	0	5	8	-0.011743	-0.000184
-4	-1	0	6	8	0.000013	0.000000
-4	-1	0	7	8	0.007169	0.000364
-4	-1	0	8	8	-0.001764	0.000000
-4	-1	1	1	1	-0.005354	0.000000
-4	-1	1	2	1	-0.004815	-0.000020
-4	-1	1	3	1	0.002308	-0.000126
-4	-1	1	4	1	0.004737	0.000035
-4	-1	1	5	1	0.000000	0.000000
-4	-1	1	6	1	0.000050	-0.000053
-4	-1	1	7	1	0.000130	0.000004
-4	-1	1	8	1	-0.000029	-0.000067
-4	-1	1	1	2	0.004815	-0.000020
-4	-1	1	2	2	-0.001456	0.000000
-4	-1	1	3	2	-0.002818	-0.000050
-4	-1	1	4	2	-0.002419	-0.000010
-4	-1	1	5	2	0.000050	-0.000053
-4	-1	1	6	2	0.000000	0.000000
-4	-1	1	7	2	0.000194	-0.000053
-4	-1	1	8	2	0.000002	-0.000012
-4	-1	1	1	3	-0.002308	-0.000126
-4	-1	1	2	3	-0.002818	0.000050
-4	-1	1	3	3	0.008590	0.000000
-4	-1	1	4	3	0.002776	-0.000173
-4	-1	1	5	3	0.000130	0.000004
-4	-1	1	6	3	-0.000194	0.000053
-4	-1	1	7	3	0.000000	0.000000
-4	-1	1	8	3	0.000045	0.000030
-4	-1	1	1	4	-0.004737	0.000035
-4	-1	1	2	4	-0.002419	0.000010
-4	-1	1	3	4	0.002776	0.000173
-4	-1	1	4	4	-0.001504	0.000000
-4	-1	1	5	4	-0.000029	-0.000067
-4	-1	1	6	4	-0.000002	0.000012
-4	-1	1	7	4	-0.000045	-0.000030
-4	-1	1	8	4	0.000000	0.000000
-4	-1	1	1	5	0.000000	0.000000
-4	-1	1	2	5	-0.000050	-0.000053
-4	-1	1	3	5	-0.000130	0.000004
-4	-1	1	4	5	0.000029	-0.000067
-4	-1	1	5	5	-0.005354	0.000000
-4	-1	1	6	5	-0.004815	0.000020
-4	-1	1	7	5	0.002308	0.000126
-4	-1	1	8	5	0.004737	-0.000035
-4	-1	1	1	6	-0.000050	-0.000053
-4	-1	1	2	6	0.000000	0.000000
-4	-1	1	3	6	-0.000194	-0.000053
-4	-1	1	4	6	-0.000002	-0.000012
-4	-1	1	5	6	0.004815	0.000020
-4	-1	1	6	6	-0.001456	0.000000
-4	-1	1	7	6	-0.002818	0.000050
-4	-1	1	8	6	-0.002419	0.000010
-4	-1	1	1	7	-0.000130	0.000004
-4	-1	1	2	7	0.000194	0.000053
-4	-1	1	3	7	0.000000	0.000000
-4	-1	1	4	7	-0.000045	0.000030
-4	-1	1	5	7	-0.002308	0.000126
-4	-1	1	6	7	-0.002818	-0.000050
-4	-1	1	7	7	0.008590	0.000000
-4	-1	1	8	7	0.002776	0.000173
-4	-1	1	1	8	0.000029	-0.000067
-4	-1	1	2	8	0.000002	0.000012
-4	-1	1	3	8	0.000045	-0.000030
-4	-1	1	4	8	0.000000	0.000000
-4	-1	1	5	8	-0.004737	-0.000035
-4	-1	1	6	8	-0.002419	-0.000010
-4	-1	1	7	8	0.002776	-0.000173
-4	-1	1	8	8	-0.001504	0.000000
-4	-1	2	1	1	-0.001384	0.000000
-4	-1	2	2	1	-0.002736	-0.000009
-4	-1	2	3	1	-0.000015	-0.000016
-4	-1	2	4	1	0.001046	0.000033
-4	-1	2	5	1	0.000000	0.000000
-4	-1	2	6	1	-0.000010	-0.000029
-4	-1	2	7	1	0.000110	0.000017
-4	-1	2	8	1	-0.000015	-0.000052
-4	-1	2	1	2	0.002736	-0.000009
-4	-1	2	2	2	0.000805	0.000000
-4	-1	2	3	2	-0.001377	-0.000015
-4	-1	2	4	2	-0.001748	-0.000069
-4	-1	2	5	2	-0.000010	-0.000029
-4	-1	2	6	2	0.000000	0.000000
-4	-1	2	7	2	0.000093	-0.000017
-4	-1	2	8	2	0.000010	-0.000015
-4	-1	2	1	3	0.000015	-0.000016
-4	-1	2	2	3	-0.001377	0.000015
-4	-1	2	3	3	0.001377	0.000000
-4	-1	2	4	3	0.000370	-0.000117
-4	-1	2	5	3	0.000110	0.000017
-4	-1	2	6	3	-0.000093	0.000017
-4	-1	2	7	3	0.000000	0.000000
-4	-1	2	8	3	-0.000019	0.000048
-4	-1	2	1	4	-0.001046	0.000033
-4	-1	2	2	4	-0.001748	0.000069
-4	-1	2	3	4	0.000370	0.000117
-4	-1	2	4	4	-0.000363	0.000000
-4	-1	2	5	4	-0.000015	-0.000052
-4	-1	2	6	4	-0.000010	0.000015
-4	-1	2	7	4	0.000019	-0.000048
-4	-1	2	8	4	0.000000	0.000000
-4	-1	2	1	5	0.000000	0.000000
-4	-1	2	2	5	0.000010	-0.000029
-4	-1	2	3	5	-0.000110	0.000017
-4	-1	2	4	5	0.000015	-0.000052
-4	-1	2	5	5	-0.001384	0.000000
-4	-1	2	6	5	-0.002736	0.000009
-4	-1	2	7	5	-0.000015	0.000016
-4	-1	2	8	5	0.001046	-0.000033
-4	-1	2	1	6	0.000010	-0.000029
-4	-1	2	2	6	0.000000	0.000000
-4	-1	2	3	6	-0.000093	-0.000017
-4	-1	2	4	6	-0.000010	-0.000015
-4	-1	2	5	6	0.002736	0.000009
-4	-1	2	6	6	0.000805	0.000000
-4	-1	2	7	6	-0.001377	0.000015
-4	-1	2	8	6	-0.001748	0.000069
-4	-1	2	1	7	-0.000110	0.000017
-4	-1	2	2	7	0.000093	0.000017
-4	-1	2	3	7	0.000000	0.000000
-4	-1	2	4	7	0.000019	0.000048
-4	-1	2	5	7	0.000015	0.000016
-4	-1	2	6	7	-0.001377	-0.000015
-4	-1	2	7	7	0.001377	0.000000
-4	-1	2	8	7	0.000370	0.000117
-4	-1	2	1	8	0.000015	-0.000052
-4	-1	2	2	8	0.000010	0.000015
-4	-1	2	3	8	-0.000019	-0.000048
-4	-1	2	4	8	0.000000	0.000000
-4	-1	2	5	8	-0.001046	-0.000033
-4	-1	2	6	8	-0.001748	-0.000069
-4	-1	2	7	8	0.000370	-0.000117
-4	-1	2	8	8	-0.000363	0.000000
-4	-1	3	1	1	-0.001935	0.000000
-4	-1	3	2	1	-0.001044	-0.000021
-4	-1	3	3	1	0.000423	-0.000051
-4	-1	3	4	1	0.000935	0.000030
-4	-1	3	5	1	0.000000	0.000000
-4	-1	3	6	1	0.000020	0.000079
-4	-1	3	7	1	0.000042	0.000026
-4	-1	3	8	1	0.000000	0.000000
-4	-1	3	1	2	0.001044	-0.000021
-4	-1	3	2	2	0.001120	0.000000
-4	-1	3	3	2	-0.000449	-0.000051
-4	-1	3	4	2	-0.000561	-0.000052
-4	-1	3	5	2	0.000020	0.000079
-4	-1	3	6	2	0.000000	0.000000
-4	-1	3	7	2	-0.000044	0.000015
-4	-1	3	8	2	0.000010	-0.000014
-4	-1	3	1	3	-0.000423	-0.000051
-4	-1	3	2	3	-0.000449	0.000051
-4	-1	3	3	3	0.001051	0.000000
-4	-1	3	4	3	0.000121	-0.000004
-4	-1	3	5	3	0.000042	0.000026
-4	-1	3	6	3	0.000044	-0.000015
-4	-1	3	7	3	0.000000	0.000000
-4	-1	3	8	3	-0.000025	0.000060
-4	-1	3	1	4	-0.000935	0.000030
-4	-1	3	2	4	-0.000561	0.000052
-4	-1	3	3	4	0.000121	0.000004
-4	-1	3	4	4	-0.000240	0.000000
-4	-1	3	5	4	0.000000	0.000000
-4	-1	3	6	4	-0.000010	0.000014
-4	-1	3	7	4	0.000025	-0.000060
-4	-1	3	8	4	0.000000	0.000000
-4	-1	3	1	5	0.000000	0.000000
-4	-1	3	2	5	-0.000020	0.000079
-4	-1	3	3	5	-0.000042	0.000026
-4	-1	3	4	5	0.000000	0.000000
-4	-1	3	5	5	-0.001935	0.000000
-4	-1	3	6	5	-0.001044	0.000021
-4	-1	3	7	5	0.000423	0.000051
-4	-1	3	8	5	0.000935	-0.000030
-4	-1	3	1	6	-0.000020	0.000079
-4	-1	3	2	6	0.000000	0.000000
-4	-1	3	3	6	0.000044	0.000015
-4	-1	3	4	6	-0.000010	-0.000014
-4	-1	3	5	6	0.001044	0.000021
-4	-1	3	6	6	0.001120	0.000000
-4	-1	3	7	6	-0.000449	0.000051
-4	-1	3	8	6	-0.000561	0.000052
-4	-1	3	1	7	-0.000042	0.000026
-4	-1	3	2	7	-0.000044	-0.000015
-4	-1	3	3	7	0.000000	0.000000
-4	-1	3	4	7	0.000025	0.000060
-4	-1	3	5	7	-0.000423	0.000051
-4	-1	3	6	7	-0.000449	-0.000051
-4	-1	3	7	7	0.001051	0.000000
-4	-1	3	8	7	0.000121	0.000004
-4	-1	3	1	8	0.000000	0.000000
-4	-1	3	2	8	0.000010	0.000014
-4	-1	3	3	8	-0.000025	-0.000060
-4	-1	3	4	8	0.000000	0.000000
-4	-1	3	5	8	-0.000935	-0.000030
-4	-1	3	6	8	-0.000561	-0.000052
-4	-1	3	7	8	0.000121	-0.000004
-4	-1	3	8	8	-0.000240	0.000000
-4	-1	4	1	1	-0.001544	0.000000
-4	-1	4	2	1	-0.000404	-0.000012
-4	-1	4	3	1	0.000419	-0.000159
-4	-1	4	4	1	0.000873	0.000026
-4	-1	4	5	1	0.000000	0.000000
-4	-1	4	6	1	0.000047	0.000149
-4	-1	4	7	1	0.000044	0.000009
-4	-1	4	8	1	-0.000008	0.000020
-4	-1	4	1	2	0.000404	-0.000012
-4	-1	4	2	2	0.001133	0.000000
-4	-1	4	3	2	-0.000267	-0.000013
-4	-1	4	4	2	-0.000159	-0.000026
-4	-1	4	5	2	0.000047	0.000149
-4	-1	4	6	2	0.000000	0.000000
-4	-1	4	7	2	-0.000161	0.000031
-4	-1	4	8	2	-0.000011	-0.000024
-4	-1	4	1	3	-0.000419	-0.000159
-4	-1	4	2	3	-0.000267	0.000013
-4	-1	4	3	3	0.001092	0.000000
-4	-1	4	4	3	0.000157	0.000013
-4	-1	4	5	3	0.000044	0.000009
-4	-1	4	6	3	0.000161	-0.000031
-4	-1	4	7	3	0.000000	0.000000
-4	-1	4	8	3	-0.000006	0.000022
-4	-1	4	1	4	-0.000873	0.000026
-4	-1	4	2	4	-0.000159	0.000026
-4	-1	4	3	4	0.000157	-0.000013
-4	-1	4	4	4	-0.000309	0.000000
-4	-1	4	5	4	-0.000008	0.000020
-4	-1	4	6	4	0.000011	0.000024
-4	-1	4	7	4	0.000006	-0.000022
-4	-1	4	8	4	0.000000	0.000000
-4	-1	4	1	5	0.000000	0.000000
-4	-1	4	2	5	-0.000047	0.000149
-4	-1	4	3	5	-0.000044	0.000009
-4	-1	4	4	5	0.000008	0.000020
-4	-1	4	5	5	-0.001544	0.000000
-4	-1	4	6	5	-0.000404	0.000012
-4	-1	4	7	5	0.000419	0.000159
-4	-1	4	8	5	0.000873	-0.000026
-4	-1	4	1	6	-0.000047	0.000149
-4	-1	4	2	6	0.000000	0.000000
-4	-1	4	3	6	0.000161	0.000031
-4	-1	4	4	6	0.000011	-0.000024
-4	-1	4	5	6	0.000404	0.000012
-4	-1	4	6	6	0.001133	0.000000
-4	-1	4	7	6	-0.000267	0.000013
-4	-1	4	8	6	-0.000159	0.000026
-4	-1	4	1	7	-0.000044	0.000009
-4	-1	4	2	7	-0.000161	-0.000031
-4	-1	4	3	7	0.000000	0.000000
-4	-1	4	4	7	0.000006	0.000022
-4	-1	4	5	7	-0.000419	0.000159
-4	-1	4	6	7	-0.000267	-0.000013
-4	-1	4	7	7	0.001092	0.000000
-4	-1	4	8	7	0.000157	-0.000013
-4	-1	4	1	8	0.000008	0.000020
-4	-1	4	2	8	-0.000011	0.000024
-4	-1	4	3	8	-0.000006	-0.000022
-4	-1	4	4	8	0.000000	0.000000
-4	-1	4	5	8	-0.000873	-0.000026
-4	-1	4	6	8	-0.000159	-0.000026
-4	-1	4	7	8	0.000157	0.000013
-4	-1	4	8	8	-0.000309	0.000000
-4	0	-4	1	1	-0.002681	0.000000
-4	0	-4	2	1	0.000626	-0.000003
-4	0	-4	3	1	0.000631	0.000009
-4	0	-4	4	1	0.000029	0.000016
-4	0	-4	5	1	0.000000	0.000000
-4	0	-4	6	1	0.000053	-0.000009
-4	0	-4	7	1	-0.000052	0.000004
-4	0	-4	8	1	0.000001	-0.000015
-4	0	-4	1	2	-0.000626	-0.000003
-4	0	-4	2	2	0.001456	0.000000
-4	0	-4	3	2	0.000080	0.000001
-4	0	-4	4	2	0.000048	0.000018
-4	0	-4	5	2	0.000053	-0.000009
-4	0	-4	6	2	0.000000	0.000000
-4	0	-4	7	2	-0.000210	0.000003
-4	0	-4	8	2	0.000000	-0.000002
-4	0	-4	1	3	-0.000631	0.000009
-4	0	-4	2	3	0.000080	-0.000001
-4	0	-4	3	3	0.001457	0.000000
-4	0	-4	4	3	0.000006	0.000002
-4	0	-4	5	3	-0.000052	0.000004
-4	0	-4	6	3	0.000210	-0.000003
-4	0	-4	7	3	0.000000	0.000000
-4	0	-4	8	3	0.000002	-0.000017
-4	0	-4	1	4	-0.000029	0.000016
-4	0	-4	2	4	0.000048	-0.000018
-4	0	-4	3	4	0.000006	-0.000002
-4	0	-4	4	4	-0.000597	0.000000
-4	0	-4	5	4	0.000001	-0.000015
-4	0	-4	6	4	0.000000	0.000002
-4	0	-4	7	4	-0.000002	0.000017
-4	0	-4	8	4	0.000000	0.000000
-4	0	-4	1	5	0.000000	0.000000
-4	0	-4	2	5	-0.000053	-0.000009
-4	0	-4	3	5	0.000052	0.000004
-4	0	-4	4	5	-0.000001	-0.000015
-4	0	-4	5	5	-0.002681	0.000000
-4	0	-4	6	5	0.000626	0.000003
-4	0	-4	7	5	0.000631	-0.000009
-4	0	-4	8	5	0.000029	-0.000016
-4	0	-4	1	6	-0.000053	-0.000009
-4	0	-4	2	6	0.000000	0.000000
-4	0	-4	3	6	0.000210	0.000003
-4	0	-4	4	6	0.000000	-0.000002
-4	0	-4	5	6	-0.000626	0.000003
-4	0	-4	6	6	0.001456	0.000000
-4	0	-4	7	6	0.000080	-0.000001
-4	0	-4	8	6	0.000048	-0.000018
-4	0	-4	1	7	0.000052	0.000004
-4	0	-4	2	7	-0.000210	-0.000003
-4	0	-4	3	7	0.000000	0.000000
-4	0	-4	4	7	-0.000002	-0.000017
-4	0	-4	5	7	-0.000631	-0.000009
-4	0	-4	6	7	0.000080	0.000001
-4	0	-4	7	7	0.001457	0.000000
-4	0	-4	8	7	0.000006	-0.000002
-4	0	-4	1	8	-0.000001	-0.000015
-4	0	-4	2	8	0.000000	0.000002
-4	0	-4	3	8	0.000002	0.000017
-4	0	-4	4	8	0.000000	0.000000
-4	0	-4	5	8	-0.000029	-0.000016
-4	0	-4	6	8	0.000048	0.000018
-4	0	-4	7	8	0.000006	0.000002
-4	0	-4	8	8	-0.000597	0.000000
-4	0	-3	1	1	-0.003661	0.000000
-4	0	-3	2	1	0.002167	0.000000
-4	0	-3	3	1	0.001117	0.000007
-4	0	-3	4	1	0.000051	0.000026
-4	0	-3	5	1	0.000000	0.000000
-4	0	-3	6	1	0.000062	-0.000001
-4	0	-3	7	1	-0.000154	0.000005
-4	0	-3	8	1	0.000007	-0.000014
-4	0	-3	1	2	-0.002167	0.000000
-4	0	-3	2	2	0.001944	0.000000
-4	0	-3	3	2	0.000862	0.000004
-4	0	-3	4	2	0.000073	0.000065
-4	0	-3	5	2	0.000062	-0.000001
-4	0	-3	6	2	0.000000	0.000000
-4	0	-3	7	2	-0.000145	0.000003
-4	0	-3	8	2	-0.000004	0.000000
-4	0	-3	1	3	-0.001117	0.000007
-4	0	-3	2	3	0.000862	-0.000004
-4	0	-3	3	3	0.002709	0.000000
-4	0	-3	4	3	-0.000016	0.000005
-4	0	-3	5	3	-0.000154	0.000005
-4	0	-3	6	3	0.000145	-0.000003
-4	0	-3	7	3	0.000000	0.000000
-4	0	-3	8	3	-0.000011	-0.000078
-4	0	-3	1	4	-0.000051	0.000026
-4	0	-3	2	4	0.000073	-0.000065
-4	0	-3	3	4	-0.000016	-0.000005
-4	0	-3	4	4	-0.000637	0.000000
-4	0	-3	5	4	0.000007	-0.000014
-4	0	-3	6	4	0.000004	0.000000
-4	0	-3	7	4	0.000011	0.000078
-4	0	-3	8	4	0.000000	0.000000
-4	0	-3	1	5	0.000000	0.000000
-4	0	-3	2	5	-0.000062	-0.000001
-4	0	-3	3	5	0.000154	0.000005
-4	0	-3	4	5	-0.000007	-0.000014
-4	0	-3	5	5	-0.003661	0.000000
-4	0	-3	6	5	0.002167	0.000000
-4	0	-3	7	5	0.001117	-0.000007
-4	0	-3	8	5	0.000051	-0.000026
-4	0	-3	1	6	-0.000062	-0.000001
-4	0	-3	2	6	0.000000	0.000000
-4	0	-3	3	6	0.000145	0.000003
-4	0	-3	4	6	0.000004	0.000000
-4	0	-3	5	6	-0.002167	0.000000
-4	0	-3	6	6	0.001944	0.000000
-4	0	-3	7	6	0.000862	-0.000004
-4	0	-3	8	6	0.000073	-0.000065
-4	0	-3	1	7	0.000154	0.000005
-4	0	-3	2	7	-0.000145	-0.000003
-4	0	-3	3	7	0.000000	0.000000
-4	0	-3	4	7	0.000011	-0.000078
-4	0	-3	5	7	-0.001117	-0.000007
-4	0	-3	6	7	0.000862	0.000004
-4	0	-3	7	7	0.002709	0.000000
-4	0	-3	8	7	-0.000016	-0.000005
-4	0	-3	1	8	-0.000007	-0.000014
-4	0	-3	2	8	-0.000004	0.000000
-4	0	-3	3	8	-0.000011	0.000078
-4	0	-3	4	8	0.000000	0.000000
-4	0	-3	5	8	-0.000051	-0.000026
-4	0	-3	6	8	0.000073	0.000065
-4	0	-3	7	8	-0.000016	0.000005
-4	0	-3	8	8	-0.000637	0.000000
-4	0	-2	1	1	-0.004459	0.000000
-4	0	-2	2	1	0.006308	0.000006
-4	0	-2	3	1	0.000881	0.000000
-4	0	-2	4	1	-0.000024	0.000044
-4	0	-2	5	1	0.000000	0.000000
-4	0	-2	6	1	-0.000016	0.000003
-4	0	-2	7	1	-0.000329	-0.000002
-4	0	-2	8	1	0.000001	0.000050
-4	0	-2	1	2	-0.006308	0.000006
-4	0	-2	2	2	0.001816	0.000000
-4	0	-2	3	2	0.003168	0.000010
-4	0	-2	4	2	0.000070	0.000111
-4	0	-2	5	2	-0.000016	0.000003
-4	0	-2	6	2	0.000000	0.000000
-4	0	-2	7	2	-0.000038	0.000003
-4	0	-2	8	2	-0.000002	-0.000008
[...]
4	3	3	3	3	0.000169	0.000000
4	3	3	4	3	-0.000015	0.000027
4	3	3	5	3	0.000005	0.000000
4	3	3	6	3	0.000029	-0.000021
4	3	3	7	3	0.000000	0.000000
4	3	3	8	3	-0.000066	0.000021
4	3	3	1	4	0.000186	-0.000024
4	3	3	2	4	-0.000042	0.000005
4	3	3	3	4	-0.000015	-0.000027
4	3	3	4	4	0.000230	0.000000
4	3	3	5	4	-0.000005	0.000019
4	3	3	6	4	-0.000006	0.000015
4	3	3	7	4	0.000066	-0.000021
4	3	3	8	4	0.000000	0.000000
4	3	3	1	5	0.000000	0.000000
4	3	3	2	5	0.000024	-0.000019
4	3	3	3	5	-0.000005	0.000000
4	3	3	4	5	0.000005	0.000019
4	3	3	5	5	-0.000707	0.000000
4	3	3	6	5	-0.000185	0.000005
4	3	3	7	5	-0.000113	-0.000005
4	3	3	8	5	-0.000186	0.000024
4	3	3	1	6	0.000024	-0.000019
4	3	3	2	6	0.000000	0.000000
4	3	3	3	6	0.000029	0.000021
4	3	3	4	6	-0.000006	-0.000015
4	3	3	5	6	0.000185	0.000005
4	3	3	6	6	0.000236	0.000000
4	3	3	7	6	-0.000015	-0.000065
4	3	3	8	6	-0.000042	0.000005
4	3	3	1	7	-0.000005	0.000000
4	3	3	2	7	-0.000029	-0.000021
4	3	3	3	7	0.000000	0.000000
4	3	3	4	7	0.000066	0.000021
4	3	3	5	7	0.000113	-0.000005
4	3	3	6	7	-0.000015	0.000065
4	3	3	7	7	0.000169	0.000000
4	3	3	8	7	-0.000015	-0.000027
4	3	3	1	8	0.000005	0.000019
4	3	3	2	8	0.000006	0.000015
4	3	3	3	8	-0.000066	-0.000021
4	3	3	4	8	0.000000	0.000000
4	3	3	5	8	0.000186	0.000024
4	3	3	6	8	-0.000042	-0.000005
4	3	3	7	8	-0.000015	0.000027
4	3	3	8	8	0.000230	0.000000
4	3	4	1	1	-0.000761	0.000000
4	3	4	2	1	0.000002	0.000003
4	3	4	3	1	-0.000004	0.000072
4	3	4	4	1	-0.000470	0.000002
4	3	4	5	1	0.000000	0.000000
4	3	4	6	1	0.000000	-0.000072
4	3	4	7	1	-0.000001	-0.000004
4	3	4	8	1	0.000000	-0.000002
4	3	4	1	2	-0.000002	0.000003
4	3	4	2	2	0.000264	0.000000
4	3	4	3	2	-0.000086	0.000024
4	3	4	4	2	-0.000082	-0.000010
4	3	4	5	2	0.000000	-0.000072
4	3	4	6	2	0.000000	0.000000
4	3	4	7	2	-0.000042	0.000025
4	3	4	8	2	0.000021	-0.000017
4	3	4	1	3	0.000004	0.000072
4	3	4	2	3	-0.000086	-0.000024
4	3	4	3	3	0.000259	0.000000
4	3	4	4	3	-0.000080	0.000016
4	3	4	5	3	-0.000001	-0.000004
4	3	4	6	3	0.000042	-0.000025
4	3	4	7	3	0.000000	0.000000
4	3	4	8	3	-0.000021	0.000010
4	3	4	1	4	0.000470	0.000002
4	3	4	2	4	-0.000082	0.000010
4	3	4	3	4	-0.000080	-0.000016
4	3	4	4	4	0.000279	0.000000
4	3	4	5	4	0.000000	-0.000002
4	3	4	6	4	-0.000021	0.000017
4	3	4	7	4	0.000021	-0.000010
4	3	4	8	4	0.000000	0.000000
4	3	4	1	5	0.000000	0.000000
4	3	4	2	5	0.000000	-0.000072
4	3	4	3	5	0.000001	-0.000004
4	3	4	4	5	0.000000	-0.000002
4	3	4	5	5	-0.000761	0.000000
4	3	4	6	5	0.000002	-0.000003
4	3	4	7	5	-0.000004	-0.000072
4	3	4	8	5	-0.000470	-0.000002
4	3	4	1	6	0.000000	-0.000072
4	3	4	2	6	0.000000	0.000000
4	3	4	3	6	0.000042	0.000025
4	3	4	4	6	-0.000021	-0.000017
4	3	4	5	6	-0.000002	-0.000003
4	3	4	6	6	0.000264	0.000000
4	3	4	7	6	-0.000086	-0.000024
4	3	4	8	6	-0.000082	0.000010
4	3	4	1	7	0.000001	-0.000004
4	3	4	2	7	-0.000042	-0.000025
4	3	4	3	7	0.000000	0.000000
4	3	4	4	7	0.000021	0.000010
4	3	4	5	7	0.000004	-0.000072
4	3	4	6	7	-0.000086	0.000024
4	3	4	7	7	0.000259	0.000000
4	3	4	8	7	-0.000080	-0.000016
4	3	4	1	8	0.000000	-0.000002
4	3	4	2	8	0.000021	0.000017
4	3	4	3	8	-0.000021	-0.000010
4	3	4	4	8	0.000000	0.000000
4	3	4	5	8	0.000470	-0.000002
4	3	4	6	8	-0.000082	-0.000010
4	3	4	7	8	-0.000080	0.000016
4	3	4	8	8	0.000279	0.000000
4	4	-4	1	1	-0.001323	0.000000
4	4	-4	2	1	0.000197	0.000000
4	4	-4	3	1	-0.000184	0.000020
4	4	-4	4	1	-0.000183	-0.000020
4	4	-4	5	1	0.000000	0.000000
4	4	-4	6	1	-0.000024	-0.000024
4	4	-4	7	1	-0.000020	-0.000005
4	4	-4	8	1	-0.000005	-0.000020
4	4	-4	1	2	-0.000197	0.000000
4	4	-4	2	2	0.000320	0.000000
4	4	-4	3	2	-0.000027	-0.000002
4	4	-4	4	2	-0.000028	0.000002
4	4	-4	5	2	-0.000024	-0.000024
4	4	-4	6	2	0.000000	0.000000
4	4	-4	7	2	0.000021	0.000002
4	4	-4	8	2	0.000002	0.000021
4	4	-4	1	3	0.000184	0.000020
4	4	-4	2	3	-0.000027	0.000002
4	4	-4	3	3	0.000286	0.000000
4	4	-4	4	3	0.000015	-0.000025
4	4	-4	5	3	-0.000020	-0.000005
4	4	-4	6	3	-0.000021	-0.000002
4	4	-4	7	3	0.000000	0.000000
4	4	-4	8	3	0.000006	-0.000007
4	4	-4	1	4	0.000183	-0.000020
4	4	-4	2	4	-0.000028	-0.000002
4	4	-4	3	4	0.000015	0.000025
4	4	-4	4	4	0.000285	0.000000
4	4	-4	5	4	-0.000005	-0.000020
4	4	-4	6	4	-0.000002	-0.000021
4	4	-4	7	4	-0.000006	0.000007
4	4	-4	8	4	0.000000	0.000000
4	4	-4	1	5	0.000000	0.000000
4	4	-4	2	5	0.000024	-0.000024
4	4	-4	3	5	0.000020	-0.000005
4	4	-4	4	5	0.000005	-0.000020
4	4	-4	5	5	-0.001323	0.000000
4	4	-4	6	5	0.000197	0.000000
4	4	-4	7	5	-0.000184	-0.000020
4	4	-4	8	5	-0.000183	0.000020
4	4	-4	1	6	0.000024	-0.000024
4	4	-4	2	6	0.000000	0.000000
4	4	-4	3	6	-0.000021	0.000002
4	4	-4	4	6	-0.000002	0.000021
4	4	-4	5	6	-0.000197	0.000000
4	4	-4	6	6	0.000320	0.000000
4	4	-4	7	6	-0.000027	0.000002
4	4	-4	8	6	-0.000028	-0.000002
4	4	-4	1	7	0.000020	-0.000005
4	4	-4	2	7	0.000021	-0.000002
4	4	-4	3	7	0.000000	0.000000
4	4	-4	4	7	-0.000006	-0.000007
4	4	-4	5	7	0.000184	-0.000020
4	4	-4	6	7	-0.000027	-0.000002
4	4	-4	7	7	0.000286	0.000000
4	4	-4	8	7	0.000015	0.000025
4	4	-4	1	8	0.000005	-0.000020
4	4	-4	2	8	0.000002	-0.000021
4	4	-4	3	8	0.000006	0.000007
4	4	-4	4	8	0.000000	0.000000
4	4	-4	5	8	0.000183	0.000020
4	4	-4	6	8	-0.000028	0.000002
4	4	-4	7	8	0.000015	-0.000025
4	4	-4	8	8	0.000285	0.000000
4	4	-3	1	1	-0.000782	0.000000
4	4	-3	2	1	0.000484	0.000000
4	4	-3	3	1	-0.000010	-0.000016
4	4	-3	4	1	-0.000010	0.000017
4	4	-3	5	1	0.000000	0.000000
4	4	-3	6	1	0.000002	0.000002
4	4	-3	7	1	-0.000077	-0.000004
4	4	-3	8	1	-0.000004	-0.000077
4	4	-3	1	2	-0.000484	0.000000
4	4	-3	2	2	0.000262	0.000000
4	4	-3	3	2	0.000059	-0.000020
4	4	-3	4	2	0.000058	0.000020
4	4	-3	5	2	0.000002	0.000002
4	4	-3	6	2	0.000000	0.000000
4	4	-3	7	2	-0.000009	0.000009
4	4	-3	8	2	0.000009	-0.000009
4	4	-3	1	3	0.000010	-0.000016
4	4	-3	2	3	0.000059	0.000020
4	4	-3	3	3	0.000204	0.000000
4	4	-3	4	3	-0.000069	0.000039
4	4	-3	5	3	-0.000077	-0.000004
4	4	-3	6	3	0.000009	-0.000009
4	4	-3	7	3	0.000000	0.000000
4	4	-3	8	3	0.000031	-0.000032
4	4	-3	1	4	0.000010	0.000017
4	4	-3	2	4	0.000058	-0.000020
4	4	-3	3	4	-0.000069	-0.000039
4	4	-3	4	4	0.000205	0.000000
4	4	-3	5	4	-0.000004	-0.000077
4	4	-3	6	4	-0.000009	0.000009
4	4	-3	7	4	-0.000031	0.000032
4	4	-3	8	4	0.000000	0.000000
4	4	-3	1	5	0.000000	0.000000
4	4	-3	2	5	-0.000002	0.000002
4	4	-3	3	5	0.000077	-0.000004
4	4	-3	4	5	0.000004	-0.000077
4	4	-3	5	5	-0.000782	0.000000
4	4	-3	6	5	0.000484	0.000000
4	4	-3	7	5	-0.000010	0.000016
4	4	-3	8	5	-0.000010	-0.000017
4	4	-3	1	6	-0.000002	0.000002
4	4	-3	2	6	0.000000	0.000000
4	4	-3	3	6	0.000009	0.000009
4	4	-3	4	6	-0.000009	-0.000009
4	4	-3	5	6	-0.000484	0.000000
4	4	-3	6	6	0.000262	0.000000
4	4	-3	7	6	0.000059	0.000020
4	4	-3	8	6	0.000058	-0.000020
4	4	-3	1	7	0.000077	-0.000004
4	4	-3	2	7	-0.000009	-0.000009
4	4	-3	3	7	0.000000	0.000000
4	4	-3	4	7	-0.000031	-0.000032
4	4	-3	5	7	0.000010	0.000016
4	4	-3	6	7	0.000059	-0.000020
4	4	-3	7	7	0.000204	0.000000
4	4	-3	8	7	-0.000069	-0.000039
4	4	-3	1	8	0.000004	-0.000077
4	4	-3	2	8	0.000009	0.000009
4	4	-3	3	8	0.000031	0.000032
4	4	-3	4	8	0.000000	0.000000
4	4	-3	5	8	0.000010	-0.000017
4	4	-3	6	8	0.000058	0.000020
4	4	-3	7	8	-0.000069	0.000039
4	4	-3	8	8	0.000205	0.000000
4	4	-2	1	1	-0.000600	0.000000
4	4	-2	2	1	0.000832	0.000000
4	4	-2	3	1	-0.000041	-0.000034
4	4	-2	4	1	-0.000040	0.000035
4	4	-2	5	1	0.000000	0.000000
4	4	-2	6	1	0.000012	0.000012
4	4	-2	7	1	-0.000153	0.000010
4	4	-2	8	1	0.000011	-0.000153
4	4	-2	1	2	-0.000832	0.000000
4	4	-2	2	2	0.000045	0.000000
4	4	-2	3	2	-0.000029	-0.000010
4	4	-2	4	2	-0.000029	0.000011
4	4	-2	5	2	0.000012	0.000012
4	4	-2	6	2	0.000000	0.000000
4	4	-2	7	2	-0.000019	-0.000011
4	4	-2	8	2	-0.000011	-0.000019
4	4	-2	1	3	0.000041	-0.000034
4	4	-2	2	3	-0.000029	0.000010
4	4	-2	3	3	0.000283	0.000000
4	4	-2	4	3	-0.000030	0.000104
4	4	-2	5	3	-0.000153	0.000010
4	4	-2	6	3	0.000019	0.000011
4	4	-2	7	3	0.000000	0.000000
4	4	-2	8	3	0.000039	-0.000040
4	4	-2	1	4	0.000040	0.000035
4	4	-2	2	4	-0.000029	-0.000011
4	4	-2	3	4	-0.000030	-0.000104
4	4	-2	4	4	0.000283	0.000000
4	4	-2	5	4	0.000011	-0.000153
4	4	-2	6	4	0.000011	0.000019
4	4	-2	7	4	-0.000039	0.000040
4	4	-2	8	4	0.000000	0.000000
4	4	-2	1	5	0.000000	0.000000
4	4	-2	2	5	-0.000012	0.000012
4	4	-2	3	5	0.000153	0.000010
4	4	-2	4	5	-0.000011	-0.000153
4	4	-2	5	5	-0.000600	0.000000
4	4	-2	6	5	0.000832	0.000000
4	4	-2	7	5	-0.000041	0.000034
4	4	-2	8	5	-0.000040	-0.000035
4	4	-2	1	6	-0.000012	0.000012
4	4	-2	2	6	0.000000	0.000000
4	4	-2	3	6	0.000019	-0.000011
4	4	-2	4	6	0.000011	-0.000019
4	4	-2	5	6	-0.000832	0.000000
4	4	-2	6	6	0.000045	0.000000
4	4	-2	7	6	-0.000029	0.000010
4	4	-2	8	6	-0.000029	-0.000011
4	4	-2	1	7	0.000153	0.000010
4	4	-2	2	7	-0.000019	0.000011
4	4	-2	3	7	0.000000	0.000000
4	4	-2	4	7	-0.000039	-0.000040
4	4	-2	5	7	0.000041	0.000034
4	4	-2	6	7	-0.000029	-0.000010
4	4	-2	7	7	0.000283	0.000000
4	4	-2	8	7	-0.000030	-0.000104
4	4	-2	1	8	-0.000011	-0.000153
4	4	-2	2	8	-0.000011	0.000019
4	4	-2	3	8	0.000039	0.000040
4	4	-2	4	8	0.000000	0.000000
4	4	-2	5	8	0.000040	-0.000035
4	4	-2	6	8	-0.000029	0.000011
4	4	-2	7	8	-0.000030	0.000104
4	4	-2	8	8	0.000283	0.000000
4	4	-1	1	1	-0.001577	0.000000
4	4	-1	2	1	0.000868	0.000000
4	4	-1	3	1	-0.000353	0.000034
4	4	-1	4	1	-0.000350	-0.000035
4	4	-1	5	1	0.000000	0.000000
4	4	-1	6	1	-0.000005	-0.000005
4	4	-1	7	1	-0.000149	0.000004
4	4	-1	8	1	0.000004	-0.000149
4	4	-1	1	2	-0.000868	0.000000
4	4	-1	2	2	-0.000365	0.000000
4	4	-1	3	2	-0.000082	0.000008
4	4	-1	4	2	-0.000081	-0.000008
4	4	-1	5	2	-0.000005	-0.000005
4	4	-1	6	2	0.000000	0.000000
4	4	-1	7	2	-0.000003	-0.000030
4	4	-1	8	2	-0.000030	-0.000003
4	4	-1	1	3	0.000353	0.000034
4	4	-1	2	3	-0.000082	-0.000008
4	4	-1	3	3	0.000968	0.000000
4	4	-1	4	3	0.000235	0.000147
4	4	-1	5	3	-0.000149	0.000004
4	4	-1	6	3	0.000003	0.000030
4	4	-1	7	3	0.000000	0.000000
4	4	-1	8	3	0.000014	-0.000014
4	4	-1	1	4	0.000350	-0.000035
4	4	-1	2	4	-0.000081	0.000008
4	4	-1	3	4	0.000235	-0.000147
4	4	-1	4	4	0.000962	0.000000
4	4	-1	5	4	0.000004	-0.000149
4	4	-1	6	4	0.000030	0.000003
4	4	-1	7	4	-0.000014	0.000014
4	4	-1	8	4	0.000000	0.000000
4	4	-1	1	5	0.000000	0.000000
4	4	-1	2	5	0.000005	-0.000005
4	4	-1	3	5	0.000149	0.000004
4	4	-1	4	5	-0.000004	-0.000149
4	4	-1	5	5	-0.001577	0.000000
4	4	-1	6	5	0.000868	0.000000
4	4	-1	7	5	-0.000353	-0.000034
4	4	-1	8	5	-0.000350	0.000035
4	4	-1	1	6	0.000005	-0.000005
4	4	-1	2	6	0.000000	0.000000
4	4	-1	3	6	0.000003	-0.000030
4	4	-1	4	6	0.000030	-0.000003
4	4	-1	5	6	-0.000868	0.000000
4	4	-1	6	6	-0.000365	0.000000
4	4	-1	7	6	-0.000082	-0.000008
4	4	-1	8	6	-0.000081	0.000008
4	4	-1	1	7	0.000149	0.000004
4	4	-1	2	7	-0.000003	0.000030
4	4	-1	3	7	0.000000	0.000000
4	4	-1	4	7	-0.000014	-0.000014
4	4	-1	5	7	0.000353	-0.000034
4	4	-1	6	7	-0.000082	0.000008
4	4	-1	7	7	0.000968	0.000000
4	4	-1	8	7	0.000235	-0.000147
4	4	-1	1	8	-0.000004	-0.000149
4	4	-1	2	8	-0.000030	0.000003
4	4	-1	3	8	0.000014	0.000014
4	4	-1	4	8	0.000000	0.000000
4	4	-1	5	8	0.000350	0.000035
4	4	-1	6	8	-0.000081	-0.000008
4	4	-1	7	8	0.000235	0.000147
4	4	-1	8	8	0.000962	0.000000
4	4	0	1	1	-0.002682	0.000000
4	4	0	2	1	-0.000023	0.000000
4	4	0	3	1	-0.000632	0.000052
4	4	0	4	1	-0.000626	-0.000053
4	4	0	5	1	0.000000	0.000000
4	4	0	6	1	-0.000016	-0.000015
4	4	0	7	1	-0.000009	0.000004
4	4	0	8	1	0.000004	-0.000009
4	4	0	1	2	0.000023	0.000000
4	4	0	2	2	-0.000598	0.000000
4	4	0	3	2	0.000005	0.000000
4	4	0	4	2	0.000005	0.000000
4	4	0	5	2	-0.000016	-0.000015
4	4	0	6	2	0.000000	0.000000
4	4	0	7	2	-0.000002	-0.000017
4	4	0	8	2	-0.000018	-0.000002
4	4	0	1	3	0.000632	0.000052
4	4	0	2	3	0.000005	0.000000
4	4	0	3	3	0.001458	0.000000
4	4	0	4	3	0.000080	0.000210
4	4	0	5	3	-0.000009	0.000004
4	4	0	6	3	0.000002	0.000017
4	4	0	7	3	0.000000	0.000000
4	4	0	8	3	-0.000002	0.000002
4	4	0	1	4	0.000626	-0.000053
4	4	0	2	4	0.000005	0.000000
4	4	0	3	4	0.000080	-0.000210
4	4	0	4	4	0.001457	0.000000
4	4	0	5	4	0.000004	-0.000009
4	4	0	6	4	0.000018	0.000002
4	4	0	7	4	0.000002	-0.000002
4	4	0	8	4	0.000000	0.000000
4	4	0	1	5	0.000000	0.000000
4	4	0	2	5	0.000016	-0.000015
4	4	0	3	5	0.000009	0.000004
4	4	0	4	5	-0.000004	-0.000009
4	4	0	5	5	-0.002682	0.000000
4	4	0	6	5	-0.000023	0.000000
4	4	0	7	5	-0.000632	-0.000052
4	4	0	8	5	-0.000626	0.000053
4	4	0	1	6	0.000016	-0.000015
4	4	0	2	6	0.000000	0.000000
4	4	0	3	6	0.000002	-0.000017
4	4	0	4	6	0.000018	-0.000002
4	4	0	5	6	0.000023	0.000000
4	4	0	6	6	-0.000598	0.000000
4	4	0	7	6	0.000005	0.000000
4	4	0	8	6	0.000005	0.000000
4	4	0	1	7	0.000009	0.000004
4	4	0	2	7	-0.000002	0.000017
4	4	0	3	7	0.000000	0.000000
4	4	0	4	7	0.000002	0.000002
4	4	0	5	7	0.000632	-0.000052
4	4	0	6	7	0.000005	0.000000
4	4	0	7	7	0.001458	0.000000
4	4	0	8	7	0.000080	-0.000210
4	4	0	1	8	-0.000004	-0.000009
4	4	0	2	8	-0.000018	0.000002
4	4	0	3	8	-0.000002	-0.000002
4	4	0	4	8	0.000000	0.000000
4	4	0	5	8	0.000626	0.000053
4	4	0	6	8	0.000005	0.000000
4	4	0	7	8	0.000080	0.000210
4	4	0	8	8	0.001457	0.000000
4	4	1	1	1	-0.001541	0.000000
4	4	1	2	1	-0.000916	0.000000
4	4	1	3	1	-0.000382	0.000042
4	4	1	4	1	-0.000378	-0.000043
4	4	1	5	1	0.000000	0.000000
4	4	1	6	1	-0.000008	-0.000008
4	4	1	7	1	0.000150	-0.000004
4	4	1	8	1	-0.000004	0.000150
4	4	1	1	2	0.000916	0.000000
4	4	1	2	2	-0.000326	0.000000
4	4	1	3	2	0.000135	-0.000012
4	4	1	4	2	0.000134	0.000012
4	4	1	5	2	-0.000008	-0.000008
4	4	1	6	2	0.000000	0.000000
4	4	1	7	2	-0.000013	-0.000028
4	4	1	8	2	-0.000028	-0.000012
4	4	1	1	3	0.000382	0.000042
4	4	1	2	3	0.000135	0.000012
4	4	1	3	3	0.001065	0.000000
4	4	1	4	3	0.000137	0.000164
4	4	1	5	3	0.000150	-0.000004
4	4	1	6	3	0.000013	0.000028
4	4	1	7	3	0.000000	0.000000
4	4	1	8	3	-0.000036	0.000037
4	4	1	1	4	0.000378	-0.000043
4	4	1	2	4	0.000134	-0.000012
4	4	1	3	4	0.000137	-0.000164
4	4	1	4	4	0.001061	0.000000
4	4	1	5	4	-0.000004	0.000150
4	4	1	6	4	0.000028	0.000012
4	4	1	7	4	0.000036	-0.000037
4	4	1	8	4	0.000000	0.000000
4	4	1	1	5	0.000000	0.000000
4	4	1	2	5	0.000008	-0.000008
4	4	1	3	5	-0.000150	-0.000004
4	4	1	4	5	0.000004	0.000150
4	4	1	5	5	-0.001541	0.000000
4	4	1	6	5	-0.000916	0.000000
4	4	1	7	5	-0.000382	-0.000042
4	4	1	8	5	-0.000378	0.000043
4	4	1	1	6	0.000008	-0.000008
4	4	1	2	6	0.000000	0.000000
4	4	1	3	6	0.000013	-0.000028
4	4	1	4	6	0.000028	-0.000012
4	4	1	5	6	0.000916	0.000000
4	4	1	6	6	-0.000326	0.000000
4	4	1	7	6	0.000135	0.000012
4	4	1	8	6	0.000134	-0.000012
4	4	1	1	7	-0.000150	-0.000004
4	4	1	2	7	-0.000013	0.000028
4	4	1	3	7	0.000000	0.000000
4	4	1	4	7	0.000036	0.000037
4	4	1	5	7	0.000382	-0.000042
4	4	1	6	7	0.000135	-0.000012
4	4	1	7	7	0.001065	0.000000
4	4	1	8	7	0.000137	-0.000164
4	4	1	1	8	0.000004	0.000150
4	4	1	2	8	-0.000028	0.000012
4	4	1	3	8	-0.000036	-0.000037
4	4	1	4	8	0.000000	0.000000
4	4	1	5	8	0.000378	0.000043
4	4	1	6	8	0.000134	0.000012
4	4	1	7	8	0.000137	0.000164
4	4	1	8	8	0.001061	0.000000
4	4	2	1	1	-0.000580	0.000000
4	4	2	2	1	-0.000848	0.000000
4	4	2	3	1	-0.000043	-0.000023
4	4	2	4	1	-0.000042	0.000023
4	4	2	5	1	0.000000	0.000000
4	4	2	6	1	0.000006	0.000006
4	4	2	7	1	0.000153	-0.000010
4	4	2	8	1	-0.000011	0.000154
4	4	2	1	2	0.000848	0.000000
4	4	2	2	2	0.000087	0.000000
4	4	2	3	2	0.000040	0.000009
4	4	2	4	2	0.000040	-0.000009
4	4	2	5	2	0.000006	0.000006
4	4	2	6	2	0.000000	0.000000
4	4	2	7	2	-0.000031	-0.000007
4	4	2	8	2	-0.000007	-0.000031
4	4	2	1	3	0.000043	-0.000023
4	4	2	2	3	0.000040	-0.000009
4	4	2	3	3	0.000264	0.000000
4	4	2	4	3	-0.000009	0.000092
4	4	2	5	3	0.000153	-0.000010
4	4	2	6	3	0.000031	0.000007
4	4	2	7	3	0.000000	0.000000
4	4	2	8	3	-0.000038	0.000039
4	4	2	1	4	0.000042	0.000023
4	4	2	2	4	0.000040	0.000009
4	4	2	3	4	-0.000009	-0.000092
4	4	2	4	4	0.000264	0.000000
4	4	2	5	4	-0.000011	0.000154
4	4	2	6	4	0.000007	0.000031
4	4	2	7	4	0.000038	-0.000039
4	4	2	8	4	0.000000	0.000000
4	4	2	1	5	0.000000	0.000000
4	4	2	2	5	-0.000006	0.000006
4	4	2	3	5	-0.000153	-0.000010
4	4	2	4	5	0.000011	0.000154
4	4	2	5	5	-0.000580	0.000000
4	4	2	6	5	-0.000848	0.000000
4	4	2	7	5	-0.000043	0.000023
4	4	2	8	5	-0.000042	-0.000023
4	4	2	1	6	-0.000006	0.000006
4	4	2	2	6	0.000000	0.000000
4	4	2	3	6	0.000031	-0.000007
4	4	2	4	6	0.000007	-0.000031
4	4	2	5	6	0.000848	0.000000
4	4	2	6	6	0.000087	0.000000
4	4	2	7	6	0.000040	-0.000009
4	4	2	8	6	0.000040	0.000009
4	4	2	1	7	-0.000153	-0.000010
4	4	2	2	7	-0.000031	0.000007
4	4	2	3	7	0.000000	0.000000
4	4	2	4	7	0.000038	0.000039
4	4	2	5	7	0.000043	0.000023
4	4	2	6	7	0.000040	0.000009
4	4	2	7	7	0.000264	0.000000
4	4	2	8	7	-0.000009	-0.000092
4	4	2	1	8	0.000011	0.000154
4	4	2	2	8	-0.000007	0.000031
4	4	2	3	8	-0.000038	-0.000039
4	4	2	4	8	0.000000	0.000000
4	4	2	5	8	0.000042	-0.000023
4	4	2	6	8	0.000040	-0.000009
4	4	2	7	8	-0.000009	0.000092
4	4	2	8	8	0.000264	0.000000
4	4	3	1	1	-0.000761	0.000000
4	4	3	2	1	-0.000470	0.000000
4	4	3	3	1	-0.000003	0.000000
4	4	3	4	1	-0.000003	0.000000
4	4	3	5	1	0.000000	0.000000
4	4	3	6	1	0.000002	0.000002
4	4	3	7	1	0.000072	0.000004
4	4	3	8	1	0.000003	0.000072
4	4	3	1	2	0.000470	0.000000
4	4	3	2	2	0.000281	0.000000
4	4	3	3	2	-0.000079	0.000021
4	4	3	4	2	-0.000079	-0.000021
4	4	3	5	2	0.000002	0.000002
4	4	3	6	2	0.000000	0.000000
4	4	3	7	2	-0.000017	0.000010
4	4	3	8	2	0.000010	-0.000017
4	4	3	1	3	0.000003	0.000000
4	4	3	2	3	-0.000079	-0.000021
4	4	3	3	3	0.000259	0.000000
4	4	3	4	3	-0.000086	0.000041
4	4	3	5	3	0.000072	0.000004
4	4	3	6	3	0.000017	-0.000010
4	4	3	7	3	0.000000	0.000000
4	4	3	8	3	-0.000025	0.000025
4	4	3	1	4	0.000003	0.000000
4	4	3	2	4	-0.000079	0.000021
4	4	3	3	4	-0.000086	-0.000041
4	4	3	4	4	0.000260	0.000000
4	4	3	5	4	0.000003	0.000072
4	4	3	6	4	-0.000010	0.000017
4	4	3	7	4	0.000025	-0.000025
4	4	3	8	4	0.000000	0.000000
4	4	3	1	5	0.000000	0.000000
4	4	3	2	5	-0.000002	0.000002
4	4	3	3	5	-0.000072	0.000004
4	4	3	4	5	-0.000003	0.000072
4	4	3	5	5	-0.000761	0.000000
4	4	3	6	5	-0.000470	0.000000
4	4	3	7	5	-0.000003	0.000000
4	4	3	8	5	-0.000003	0.000000
4	4	3	1	6	-0.000002	0.000002
4	4	3	2	6	0.000000	0.000000
4	4	3	3	6	0.000017	0.000010
4	4	3	4	6	-0.000010	-0.000017
4	4	3	5	6	0.000470	0.000000
4	4	3	6	6	0.000281	0.000000
4	4	3	7	6	-0.000079	-0.000021
4	4	3	8	6	-0.000079	0.000021
4	4	3	1	7	-0.000072	0.000004
4	4	3	2	7	-0.000017	-0.000010
4	4	3	3	7	0.000000	0.000000
4	4	3	4	7	0.000025	0.000025
4	4	3	5	7	0.000003	0.000000
4	4	3	6	7	-0.000079	0.000021
4	4	3	7	7	0.000259	0.000000
4	4	3	8	7	-0.000086	-0.000041
4	4	3	1	8	-0.000003	0.000072
4	4	3	2	8	0.000010	0.000017
4	4	3	3	8	-0.000025	-0.000025
4	4	3	4	8	0.000000	0.000000
4	4	3	5	8	0.000003	0.000000
4	4	3	6	8	-0.000079	-0.000021
4	4	3	7	8	-0.000086	0.000041
4	4	3	8	8	0.000260	0.000000
4	4	4	1	1	-0.001318	0.000000
4	4	4	2	1	-0.000147	0.000000
4	4	4	3	1	-0.000152	0.000022
4	4	4	4	1	-0.000149	-0.000022
4	4	4	5	1	0.000000	0.000000
4	4	4	6	1	-0.000022	-0.000022
4	4	4	7	1	0.000022	0.000000
4	4	4	8	1	0.000000	0.000022
4	4	4	1	2	0.000147	0.000000
4	4	4	2	2	0.000314	0.000000
4	4	4	3	2	-0.000016	0.000000
4	4	4	4	2	-0.000016	0.000000
4	4	4	5	2	-0.000022	-0.000022
4	4	4	6	2	0.000000	0.000000
4	4	4	7	2	0.000022	0.000000
4	4	4	8	2	0.000000	0.000022
4	4	4	1	3	0.000152	0.000022
4	4	4	2	3	-0.000016	0.000000
4	4	4	3	3	0.000313	0.000000
4	4	4	4	3	-0.000016	-0.000021
4	4	4	5	3	0.000022	0.000000
4	4	4	6	3	-0.000022	0.000000
4	4	4	7	3	0.000000	0.000000
4	4	4	8	3	0.000000	0.000000
4	4	4	1	4	0.000149	-0.000022
4	4	4	2	4	-0.000016	0.000000
4	4	4	3	4	-0.000016	0.000021
4	4	4	4	4	0.000313	0.000000
4	4	4	5	4	0.000000	0.000022
4	4	4	6	4	0.000000	-0.000022
4	4	4	7	4	0.000000	0.000000
4	4	4	8	4	0.000000	0.000000
4	4	4	1	5	0.000000	0.000000
4	4	4	2	5	0.000022	-0.000022
4	4	4	3	5	-0.000022	0.000000
4	4	4	4	5	0.000000	0.000022
4	4	4	5	5	-0.001318	0.000000
4	4	4	6	5	-0.000147	0.000000
4	4	4	7	5	-0.000152	-0.000022
4	4	4	8	5	-0.000149	0.000022
4	4	4	1	6	0.000022	-0.000022
4	4	4	2	6	0.000000	0.000000
4	4	4	3	6	-0.000022	0.000000
4	4	4	4	6	0.000000	0.000022
4	4	4	5	6	0.000147	0.000000
4	4	4	6	6	0.000314	0.000000
4	4	4	7	6	-0.000016	0.000000
4	4	4	8	6	-0.000016	0.000000
4	4	4	1	7	-0.000022	0.000000
4	4	4	2	7	0.000022	0.000000
4	4	4	3	7	0.000000	0.000000
4	4	4	4	7	0.000000	0.000000
4	4	4	5	7	0.000152	-0.000022
4	4	4	6	7	-0.000016	0.000000
4	4	4	7	7	0.000313	0.000000
4	4	4	8	7	-0.000016	0.000021
4	4	4	1	8	0.000000	0.000022
4	4	4	2	8	0.000000	-0.000022
4	4	4	3	8	0.000000	0.000000
4	4	4	4	8	0.000000	0.000000
4	4	4	5	8	0.000149	0.000022
4	4	4	6	8	-0.000016	0.000000
4	4	4	7	8	-0.000016	-0.000021
4	4	4	8	8	0.000313	0.000000
