 written on 25Mar2019 at 10:31:46 
           4
          45
    4    2    2    2    2    2    2    2    4    2    1    1    1    1    1
    1    1    2    2    1    1    1    1    1    1    1    2    2    1    1
    1    1    1    1    1    2    4    2    2    2    2    2    2    2    4
   -2   -4    0    1    1   -0.000095    0.000000
   -2   -4    0    2    1    0.001275   -0.000000
   -2   -4    0    3    1   -0.000556    0.000000
   -2   -4    0    4    1   -0.000316   -0.000000
   -2   -4    0    1    2    0.001275    0.000000
   -2   -4    0    2    2   -0.000095    0.000000
   -2   -4    0    3    2   -0.000316    0.000000
   -2   -4    0    4    2   -0.000556    0.000000
   -2   -4    0    1    3   -0.000556   -0.000000
   -2   -4    0    2    3   -0.000316   -0.000000
   -2   -4    0    3    3   -0.000095    0.000000
   -2   -4    0    4    3   -0.002848   -0.000000
   -2   -4    0    1    4   -0.000316    0.000000
   -2   -4    0    2    4   -0.000556   -0.000000
   -2   -4    0    3    4   -0.002848    0.000000
   -2   -4    0    4    4   -0.000095    0.000000
   -2   -3    0    1    1    0.000202    0.000000
   -2   -3    0    2    1   -0.000373   -0.000000
   -2   -3    0    3    1   -0.000556    0.000000
   -2   -3    0    4    1   -0.000316    0.000000
   -2   -3    0    1    2   -0.000373    0.000000
   -2   -3    0    2    2    0.000202   -0.000000
   -2   -3    0    3    2   -0.000316   -0.000000
   -2   -3    0    4    2   -0.000556    0.000000
   -2   -3    0    1    3   -0.000116   -0.000000
   -2   -3    0    2    3   -0.000196   -0.000000
   -2   -3    0    3    3    0.000202    0.000000
   -2   -3    0    4    3    0.002103    0.000000
   -2   -3    0    1    4   -0.000196    0.000000
   -2   -3    0    2    4   -0.000116   -0.000000
   -2   -3    0    3    4    0.002103   -0.000000
   -2   -3    0    4    4    0.000202   -0.000000
   -2   -2    0    1    1   -0.001183    0.000000
   -2   -2    0    2    1   -0.000586   -0.000000
   -2   -2    0    3    1   -0.000116   -0.000000
   -2   -2    0    4    1   -0.000196    0.000000
   -2   -2    0    1    2   -0.000586    0.000000
   -2   -2    0    2    2   -0.001183   -0.000000
   -2   -2    0    3    2   -0.000196   -0.000000
   -2   -2    0    4    2   -0.000116    0.000000
   -2   -2    0    1    3    0.001407    0.000000
   -2   -2    0    2    3    0.000420   -0.000000
   -2   -2    0    3    3   -0.001183    0.000000
   -2   -2    0    4    3    0.000200    0.000000
   -2   -2    0    1    4    0.000420    0.000000
   -2   -2    0    2    4    0.001407    0.000000
   -2   -2    0    3    4    0.000200   -0.000000
   -2   -2    0    4    4   -0.001183   -0.000000
   -2   -1    0    1    1   -0.003395    0.000000
   -2   -1    0    2    1    0.001317   -0.000000
   -2   -1    0    3    1    0.001407   -0.000000
   -2   -1    0    4    1    0.000420    0.000000
   -2   -1    0    1    2    0.001317    0.000000
   -2   -1    0    2    2   -0.003395   -0.000000
   -2   -1    0    3    2    0.000420   -0.000000
   -2   -1    0    4    2    0.001407   -0.000000
   -2   -1    0    1    3    0.000918    0.000000
   -2   -1    0    2    3    0.004193   -0.000000
   -2   -1    0    3    3   -0.003395    0.000000
   -2   -1    0    4    3    0.002151    0.000000
   -2   -1    0    1    4    0.004193    0.000000
   -2   -1    0    2    4    0.000918    0.000000
   -2   -1    0    3    4    0.002151   -0.000000
   -2   -1    0    4    4   -0.003395   -0.000000
   -2    0    0    1    1    0.003636    0.000000
   -2    0    0    2    1   -0.005002   -0.000000
   -2    0    0    3    1    0.000918   -0.000000
   -2    0    0    4    1    0.004193    0.000000
   -2    0    0    1    2   -0.005002    0.000000
   -2    0    0    2    2    0.003636    0.000000
   -2    0    0    3    2    0.004193   -0.000000
   -2    0    0    4    2    0.000918   -0.000000
   -2    0    0    1    3    0.000918    0.000000
   -2    0    0    2    3    0.004193    0.000000
   -2    0    0    3    3    0.003636    0.000000
   -2    0    0    4    3   -0.050750    0.000000
   -2    0    0    1    4    0.004193   -0.000000
   -2    0    0    2    4    0.000918    0.000000
   -2    0    0    3    4   -0.050750   -0.000000
   -2    0    0    4    4    0.003636    0.000000
   -2    1    0    1    1   -0.003395   -0.000000
   -2    1    0    2    1    0.001317   -0.000000
   -2    1    0    3    1    0.000918   -0.000000
   -2    1    0    4    1    0.004193   -0.000000
   -2    1    0    1    2    0.001317    0.000000
   -2    1    0    2    2   -0.003395    0.000000
   -2    1    0    3    2    0.004193    0.000000
   -2    1    0    4    2    0.000918   -0.000000
   -2    1    0    1    3    0.001407    0.000000
   -2    1    0    2    3    0.000420    0.000000
   -2    1    0    3    3   -0.003395   -0.000000
   -2    1    0    4    3    0.002151    0.000000
   -2    1    0    1    4    0.000420   -0.000000
   -2    1    0    2    4    0.001407    0.000000
   -2    1    0    3    4    0.002151   -0.000000
   -2    1    0    4    4   -0.003395    0.000000
   -2    2    0    1    1   -0.001183   -0.000000
   -2    2    0    2    1   -0.000586   -0.000000
   -2    2    0    3    1    0.001407   -0.000000
   -2    2    0    4    1    0.000420   -0.000000
   -2    2    0    1    2   -0.000586    0.000000
   -2    2    0    2    2   -0.001183    0.000000
   -2    2    0    3    2    0.000420    0.000000
   -2    2    0    4    2    0.001407   -0.000000
   -2    2    0    1    3   -0.000116    0.000000
   -2    2    0    2    3   -0.000196    0.000000
   -2    2    0    3    3   -0.001183   -0.000000
   -2    2    0    4    3    0.000200    0.000000
   -2    2    0    1    4   -0.000196   -0.000000
   -2    2    0    2    4   -0.000116   -0.000000
   -2    2    0    3    4    0.000200   -0.000000
   -2    2    0    4    4   -0.001183    0.000000
   -2    3    0    1    1    0.000202   -0.000000
   -2    3    0    2    1   -0.000373   -0.000000
   -2    3    0    3    1   -0.000116    0.000000
   -2    3    0    4    1   -0.000196   -0.000000
   -2    3    0    1    2   -0.000373    0.000000
   -2    3    0    2    2    0.000202    0.000000
   -2    3    0    3    2   -0.000196    0.000000
   -2    3    0    4    2   -0.000116    0.000000
   -2    3    0    1    3   -0.000556   -0.000000
   -2    3    0    2    3   -0.000316    0.000000
   -2    3    0    3    3    0.000202   -0.000000
   -2    3    0    4    3    0.002103    0.000000
   -2    3    0    1    4   -0.000316   -0.000000
   -2    3    0    2    4   -0.000556   -0.000000
   -2    3    0    3    4    0.002103   -0.000000
   -2    3    0    4    4    0.000202    0.000000
   -2    4    0    1    1   -0.000095   -0.000000
   -2    4    0    2    1    0.001275   -0.000000
   -2    4    0    3    1   -0.000556    0.000000
   -2    4    0    4    1   -0.000316   -0.000000
   -2    4    0    1    2    0.001275    0.000000
   -2    4    0    2    2   -0.000095   -0.000000
   -2    4    0    3    2   -0.000316    0.000000
   -2    4    0    4    2   -0.000556    0.000000
   -2    4    0    1    3   -0.000556   -0.000000
   -2    4    0    2    3   -0.000316   -0.000000
   -2    4    0    3    3   -0.000095   -0.000000
   -2    4    0    4    3   -0.002848   -0.000000
   -2    4    0    1    4   -0.000316    0.000000
   -2    4    0    2    4   -0.000556   -0.000000
   -2    4    0    3    4   -0.002848    0.000000
   -2    4    0    4    4   -0.000095   -0.000000
   -1   -4    0    1    1    0.001263    0.000000
   -1   -4    0    2    1   -0.002848   -0.000000
   -1   -4    0    3    1    0.000858    0.000000
   -1   -4    0    4    1   -0.000316    0.000000
   -1   -4    0    1    2   -0.000507    0.000000
   -1   -4    0    2    2    0.001263   -0.000000
   -1   -4    0    3    2   -0.000071   -0.000000
   -1   -4    0    4    2   -0.001537    0.000000
   -1   -4    0    1    3   -0.001537   -0.000000
   -1   -4    0    2    3   -0.000316    0.000000
   -1   -4    0    3    3    0.001263   -0.000000
   -1   -4    0    4    3    0.001275   -0.000000
   -1   -4    0    1    4   -0.000071   -0.000000
   -1   -4    0    2    4    0.000858   -0.000000
   -1   -4    0    3    4    0.001741   -0.000000
   -1   -4    0    4    4    0.001263    0.000000
   -1   -3    0    1    1    0.000744   -0.000000
   -1   -3    0    2    1    0.002103    0.000000
   -1   -3    0    3    1    0.000858    0.000000
   -1   -3    0    4    1   -0.000316   -0.000000
   -1   -3    0    1    2    0.000136    0.000000
   -1   -3    0    2    2    0.000744    0.000000
   -1   -3    0    3    2   -0.000071    0.000000
   -1   -3    0    4    2   -0.001537    0.000000
   -1   -3    0    1    3    0.000315   -0.000000
   -1   -3    0    2    3   -0.000196    0.000000
   -1   -3    0    3    3    0.000744   -0.000000
   -1   -3    0    4    3   -0.000373   -0.000000
   -1   -3    0    1    4    0.002973   -0.000000
   -1   -3    0    2    4   -0.003657    0.000000
   -1   -3    0    3    4    0.000031   -0.000000
   -1   -3    0    4    4    0.000744    0.000000
   -1   -2    0    1    1    0.003058   -0.000000
   -1   -2    0    2    1    0.000200    0.000000
   -1   -2    0    3    1   -0.003657   -0.000000
   -1   -2    0    4    1   -0.000196   -0.000000
   -1   -2    0    1    2   -0.045213    0.000000
   -1   -2    0    2    2    0.003058    0.000000
   -1   -2    0    3    2    0.002973    0.000000
   -1   -2    0    4    2    0.000315    0.000000
   -1   -2    0    1    3    0.003364   -0.000000
   -1   -2    0    2    3    0.000420    0.000000
   -1   -2    0    3    3    0.003058   -0.000000
   -1   -2    0    4    3   -0.000586   -0.000000
   -1   -2    0    1    4    0.050209   -0.000000
   -1   -2    0    2    4    0.009824    0.000000
   -1   -2    0    3    4    0.009874   -0.000000
   -1   -2    0    4    4    0.003058    0.000000
   -1   -1    0    1    1   -0.020552   -0.000000
   -1   -1    0    2    1    0.002151    0.000000
   -1   -1    0    3    1    0.009824   -0.000000
   -1   -1    0    4    1    0.000420   -0.000000
   -1   -1    0    1    2    0.001408    0.000000
   -1   -1    0    2    2   -0.020552    0.000000
   -1   -1    0    3    2    0.050209    0.000000
   -1   -1    0    4    2    0.003364    0.000000
   -1   -1    0    1    3    0.010608    0.000000
   -1   -1    0    2    3    0.004193    0.000000
   -1   -1    0    3    3   -0.020552   -0.000000
   -1   -1    0    4    3    0.001317   -0.000000
   -1   -1    0    1    4    0.243911   -0.000000
   -1   -1    0    2    4   -0.003750    0.000000
   -1   -1    0    3    4   -0.232798   -0.000000
   -1   -1    0    4    4   -0.020552    0.000000
   -1    0    0    1    1    0.048663    0.000000
   -1    0    0    2    1   -0.050750    0.000000
   -1    0    0    3    1   -0.003750   -0.000000
   -1    0    0    4    1    0.004193   -0.000000
   -1    0    0    1    2   -0.225462    0.000000
   -1    0    0    2    2    0.048663   -0.000000
   -1    0    0    3    2    0.243911    0.000000
   -1    0    0    4    2    0.010608   -0.000000
   -1    0    0    1    3    0.010608    0.000000
   -1    0    0    2    3    0.004193   -0.000000
   -1    0    0    3    3    0.048663   -0.000000
   -1    0    0    4    3   -0.005002   -0.000000
   -1    0    0    1    4    0.243911    0.000000
   -1    0    0    2    4   -0.003750    0.000000
   -1    0    0    3    4   -2.887783   -0.000000
   -1    0    0    4    4    0.048663    0.000000
   -1    1    0    1    1   -0.020552    0.000000
   -1    1    0    2    1    0.002151    0.000000
   -1    1    0    3    1   -0.003750   -0.000000
   -1    1    0    4    1    0.004193    0.000000
   -1    1    0    1    2    0.001408    0.000000
   -1    1    0    2    2   -0.020552   -0.000000
   -1    1    0    3    2    0.243911   -0.000000
   -1    1    0    4    2    0.010608   -0.000000
   -1    1    0    1    3    0.003364    0.000000
   -1    1    0    2    3    0.000420   -0.000000
   -1    1    0    3    3   -0.020552    0.000000
   -1    1    0    4    3    0.001317   -0.000000
   -1    1    0    1    4    0.050209    0.000000
   -1    1    0    2    4    0.009824   -0.000000
   -1    1    0    3    4   -0.232798   -0.000000
   -1    1    0    4    4   -0.020552   -0.000000
   -1    2    0    1    1    0.003058    0.000000
   -1    2    0    2    1    0.000200    0.000000
   -1    2    0    3    1    0.009824    0.000000
   -1    2    0    4    1    0.000420    0.000000
   -1    2    0    1    2   -0.045213    0.000000
   -1    2    0    2    2    0.003058   -0.000000
   -1    2    0    3    2    0.050209   -0.000000
   -1    2    0    4    2    0.003364   -0.000000
   -1    2    0    1    3    0.000315    0.000000
   -1    2    0    2    3   -0.000196   -0.000000
   -1    2    0    3    3    0.003058    0.000000
   -1    2    0    4    3   -0.000586   -0.000000
   -1    2    0    1    4    0.002973    0.000000
   -1    2    0    2    4   -0.003657   -0.000000
   -1    2    0    3    4    0.009874   -0.000000
   -1    2    0    4    4    0.003058   -0.000000
   -1    3    0    1    1    0.000744    0.000000
   -1    3    0    2    1    0.002103    0.000000
   -1    3    0    3    1   -0.003657    0.000000
   -1    3    0    4    1   -0.000196    0.000000
   -1    3    0    1    2    0.000136    0.000000
   -1    3    0    2    2    0.000744   -0.000000
   -1    3    0    3    2    0.002973   -0.000000
   -1    3    0    4    2    0.000315   -0.000000
   -1    3    0    1    3   -0.001537   -0.000000
   -1    3    0    2    3   -0.000316   -0.000000
   -1    3    0    3    3    0.000744    0.000000
   -1    3    0    4    3   -0.000373   -0.000000
   -1    3    0    1    4   -0.000071    0.000000
   -1    3    0    2    4    0.000858   -0.000000
   -1    3    0    3    4    0.000031   -0.000000
   -1    3    0    4    4    0.000744   -0.000000
   -1    4    0    1    1    0.001263    0.000000
   -1    4    0    2    1   -0.002848   -0.000000
   -1    4    0    3    1    0.000858    0.000000
   -1    4    0    4    1   -0.000316    0.000000
   -1    4    0    1    2   -0.000507    0.000000
   -1    4    0    2    2    0.001263   -0.000000
   -1    4    0    3    2   -0.000071   -0.000000
   -1    4    0    4    2   -0.001537    0.000000
   -1    4    0    1    3   -0.001537   -0.000000
   -1    4    0    2    3   -0.000316    0.000000
   -1    4    0    3    3    0.001263   -0.000000
   -1    4    0    4    3    0.001275   -0.000000
   -1    4    0    1    4   -0.000071   -0.000000
   -1    4    0    2    4    0.000858   -0.000000
   -1    4    0    3    4    0.001741   -0.000000
   -1    4    0    4    4    0.001263    0.000000
    0   -4    0    1    1   -0.002601    0.000000
    0   -4    0    2    1    0.001741    0.000000
    0   -4    0    3    1    0.000417    0.000000
    0   -4    0    4    1   -0.000071   -0.000000
    0   -4    0    1    2    0.001741   -0.000000
    0   -4    0    2    2   -0.002601    0.000000
    0   -4    0    3    2   -0.000071    0.000000
    0   -4    0    4    2    0.000417    0.000000
    0   -4    0    1    3    0.000417   -0.000000
    0   -4    0    2    3   -0.000071   -0.000000
    0   -4    0    3    3   -0.002601    0.000000
    0   -4    0    4    3   -0.000507   -0.000000
    0   -4    0    1    4   -0.000071    0.000000
    0   -4    0    2    4    0.000417   -0.000000
    0   -4    0    3    4   -0.000507    0.000000
    0   -4    0    4    4   -0.002601    0.000000
    0   -3    0    1    1    0.001120    0.000000
    0   -3    0    2    1    0.000031    0.000000
    0   -3    0    3    1    0.000417    0.000000
    0   -3    0    4    1   -0.000071    0.000000
    0   -3    0    1    2    0.000031   -0.000000
    0   -3    0    2    2    0.001120   -0.000000
    0   -3    0    3    2   -0.000071   -0.000000
    0   -3    0    4    2    0.000417    0.000000
    0   -3    0    1    3    0.004135    0.000000
    0   -3    0    2    3    0.002973   -0.000000
    0   -3    0    3    3    0.001120    0.000000
    0   -3    0    4    3    0.000136   -0.000000
    0   -3    0    1    4    0.002973    0.000000
    0   -3    0    2    4    0.004135   -0.000000
    0   -3    0    3    4    0.000136    0.000000
    0   -3    0    4    4    0.001120   -0.000000
    0   -2    0    1    1   -0.020311    0.000000
    0   -2    0    2    1    0.009874    0.000000
    0   -2    0    3    1    0.004135    0.000000
    0   -2    0    4    1    0.002973    0.000000
    0   -2    0    1    2    0.009874   -0.000000
    0   -2    0    2    2   -0.020311   -0.000000
    0   -2    0    3    2    0.002973   -0.000000
    0   -2    0    4    2    0.004135   -0.000000
    0   -2    0    1    3   -0.000874    0.000000
    0   -2    0    2    3    0.050209   -0.000000
    0   -2    0    3    3   -0.020311    0.000000
    0   -2    0    4    3   -0.045213   -0.000000
    0   -2    0    1    4    0.050209    0.000000
    0   -2    0    2    4   -0.000874   -0.000000
    0   -2    0    3    4   -0.045213    0.000000
    0   -2    0    4    4   -0.020311   -0.000000
    0   -1    0    1    1    0.248317    0.000000
    0   -1    0    2    1   -0.232798    0.000000
    0   -1    0    3    1   -0.000874    0.000000
    0   -1    0    4    1    0.050209    0.000000
    0   -1    0    1    2   -0.232798   -0.000000
    0   -1    0    2    2    0.248317   -0.000000
    0   -1    0    3    2    0.050209   -0.000000
    0   -1    0    4    2   -0.000874   -0.000000
    0   -1    0    1    3   -2.877127    0.000000
    0   -1    0    2    3    0.243911   -0.000000
    0   -1    0    3    3    0.248317    0.000000
    0   -1    0    4    3    0.001408   -0.000000
    0   -1    0    1    4    0.243911    0.000000
    0   -1    0    2    4   -2.877127    0.000000
    0   -1    0    3    4    0.001408    0.000000
    0   -1    0    4    4    0.248317   -0.000000
    0    0    0    1    1   -2.356892   -0.000000
    0    0    0    2    1   -2.887783    0.000000
    0    0    0    3    1   -2.877127   -0.000000
    0    0    0    4    1    0.243911    0.000000
    0    0    0    1    2   -2.887783   -0.000000
    0    0    0    2    2   -2.356892    0.000000
    0    0    0    3    2    0.243911   -0.000000
    0    0    0    4    2   -2.877127   -0.000000
    0    0    0    1    3   -2.877127    0.000000
    0    0    0    2    3    0.243911    0.000000
    0    0    0    3    3   -2.356892   -0.000000
    0    0    0    4    3   -0.225462   -0.000000
    0    0    0    1    4    0.243911   -0.000000
    0    0    0    2    4   -2.877127    0.000000
    0    0    0    3    4   -0.225462    0.000000
    0    0    0    4    4   -2.356892    0.000000
    0    1    0    1    1    0.248317   -0.000000
    0    1    0    2    1   -0.232798    0.000000
    0    1    0    3    1   -2.877127   -0.000000
    0    1    0    4    1    0.243911   -0.000000
    0    1    0    1    2   -0.232798   -0.000000
    0    1    0    2    2    0.248317    0.000000
    0    1    0    3    2    0.243911    0.000000
    0    1    0    4    2   -2.877127   -0.000000
    0    1    0    1    3   -0.000874   -0.000000
    0    1    0    2    3    0.050209    0.000000
    0    1    0    3    3    0.248317   -0.000000
    0    1    0    4    3    0.001408   -0.000000
    0    1    0    1    4    0.050209   -0.000000
    0    1    0    2    4   -0.000874    0.000000
    0    1    0    3    4    0.001408    0.000000
    0    1    0    4    4    0.248317    0.000000
    0    2    0    1    1   -0.020311   -0.000000
    0    2    0    2    1    0.009874    0.000000
    0    2    0    3    1   -0.000874   -0.000000
    0    2    0    4    1    0.050209   -0.000000
    0    2    0    1    2    0.009874   -0.000000
    0    2    0    2    2   -0.020311    0.000000
    0    2    0    3    2    0.050209    0.000000
    0    2    0    4    2   -0.000874    0.000000
    0    2    0    1    3    0.004135   -0.000000
    0    2    0    2    3    0.002973    0.000000
    0    2    0    3    3   -0.020311   -0.000000
    0    2    0    4    3   -0.045213   -0.000000
    0    2    0    1    4    0.002973   -0.000000
    0    2    0    2    4    0.004135    0.000000
    0    2    0    3    4   -0.045213    0.000000
    0    2    0    4    4   -0.020311    0.000000
    0    3    0    1    1    0.001120   -0.000000
    0    3    0    2    1    0.000031    0.000000
    0    3    0    3    1    0.004135   -0.000000
    0    3    0    4    1    0.002973   -0.000000
    0    3    0    1    2    0.000031   -0.000000
    0    3    0    2    2    0.001120    0.000000
    0    3    0    3    2    0.002973    0.000000
    0    3    0    4    2    0.004135    0.000000
    0    3    0    1    3    0.000417   -0.000000
    0    3    0    2    3   -0.000071    0.000000
    0    3    0    3    3    0.001120   -0.000000
    0    3    0    4    3    0.000136   -0.000000
    0    3    0    1    4   -0.000071   -0.000000
    0    3    0    2    4    0.000417   -0.000000
    0    3    0    3    4    0.000136    0.000000
    0    3    0    4    4    0.001120    0.000000
    0    4    0    1    1   -0.002601   -0.000000
    0    4    0    2    1    0.001741    0.000000
    0    4    0    3    1    0.000417    0.000000
    0    4    0    4    1   -0.000071   -0.000000
    0    4    0    1    2    0.001741   -0.000000
    0    4    0    2    2   -0.002601   -0.000000
    0    4    0    3    2   -0.000071    0.000000
    0    4    0    4    2    0.000417    0.000000
    0    4    0    1    3    0.000417   -0.000000
    0    4    0    2    3   -0.000071   -0.000000
    0    4    0    3    3   -0.002601   -0.000000
    0    4    0    4    3   -0.000507   -0.000000
    0    4    0    1    4   -0.000071    0.000000
    0    4    0    2    4    0.000417   -0.000000
    0    4    0    3    4   -0.000507    0.000000
    0    4    0    4    4   -0.002601   -0.000000
    1   -4    0    1    1    0.001263   -0.000000
    1   -4    0    2    1   -0.000507   -0.000000
    1   -4    0    3    1   -0.001537    0.000000
    1   -4    0    4    1   -0.000071    0.000000
    1   -4    0    1    2   -0.002848    0.000000
    1   -4    0    2    2    0.001263    0.000000
    1   -4    0    3    2   -0.000316   -0.000000
    1   -4    0    4    2    0.000858    0.000000
    1   -4    0    1    3    0.000858   -0.000000
    1   -4    0    2    3   -0.000071    0.000000
    1   -4    0    3    3    0.001263    0.000000
    1   -4    0    4    3    0.001741    0.000000
    1   -4    0    1    4   -0.000316   -0.000000
    1   -4    0    2    4   -0.001537   -0.000000
    1   -4    0    3    4    0.001275    0.000000
    1   -4    0    4    4    0.001263   -0.000000
    1   -3    0    1    1    0.000744   -0.000000
    1   -3    0    2    1    0.000136   -0.000000
    1   -3    0    3    1   -0.001537    0.000000
    1   -3    0    4    1   -0.000071   -0.000000
    1   -3    0    1    2    0.002103   -0.000000
    1   -3    0    2    2    0.000744    0.000000
    1   -3    0    3    2   -0.000316    0.000000
    1   -3    0    4    2    0.000858    0.000000
    1   -3    0    1    3   -0.003657   -0.000000
    1   -3    0    2    3    0.002973    0.000000
    1   -3    0    3    3    0.000744   -0.000000
    1   -3    0    4    3    0.000031    0.000000
    1   -3    0    1    4   -0.000196   -0.000000
    1   -3    0    2    4    0.000315    0.000000
    1   -3    0    3    4   -0.000373    0.000000
    1   -3    0    4    4    0.000744    0.000000
    1   -2    0    1    1    0.003058   -0.000000
    1   -2    0    2    1   -0.045213   -0.000000
    1   -2    0    3    1    0.000315   -0.000000
    1   -2    0    4    1    0.002973   -0.000000
    1   -2    0    1    2    0.000200   -0.000000
    1   -2    0    2    2    0.003058    0.000000
    1   -2    0    3    2   -0.000196    0.000000
    1   -2    0    4    2   -0.003657    0.000000
    1   -2    0    1    3    0.009824   -0.000000
    1   -2    0    2    3    0.050209    0.000000
    1   -2    0    3    3    0.003058   -0.000000
    1   -2    0    4    3    0.009874    0.000000
    1   -2    0    1    4    0.000420   -0.000000
    1   -2    0    2    4    0.003364    0.000000
    1   -2    0    3    4   -0.000586    0.000000
    1   -2    0    4    4    0.003058    0.000000
    1   -1    0    1    1   -0.020552   -0.000000
    1   -1    0    2    1    0.001408   -0.000000
    1   -1    0    3    1    0.003364   -0.000000
    1   -1    0    4    1    0.050209   -0.000000
    1   -1    0    1    2    0.002151   -0.000000
    1   -1    0    2    2   -0.020552    0.000000
    1   -1    0    3    2    0.000420    0.000000
    1   -1    0    4    2    0.009824    0.000000
    1   -1    0    1    3   -0.003750    0.000000
    1   -1    0    2    3    0.243911    0.000000
    1   -1    0    3    3   -0.020552   -0.000000
    1   -1    0    4    3   -0.232798    0.000000
    1   -1    0    1    4    0.004193   -0.000000
    1   -1    0    2    4    0.010608    0.000000
    1   -1    0    3    4    0.001317    0.000000
    1   -1    0    4    4   -0.020552    0.000000
    1    0    0    1    1    0.048663   -0.000000
    1    0    0    2    1   -0.225462   -0.000000
    1    0    0    3    1    0.010608   -0.000000
    1    0    0    4    1    0.243911   -0.000000
    1    0    0    1    2   -0.050750   -0.000000
    1    0    0    2    2    0.048663    0.000000
    1    0    0    3    2    0.004193    0.000000
    1    0    0    4    2   -0.003750   -0.000000
    1    0    0    1    3   -0.003750    0.000000
    1    0    0    2    3    0.243911   -0.000000
    1    0    0    3    3    0.048663    0.000000
    1    0    0    4    3   -2.887783    0.000000
    1    0    0    1    4    0.004193    0.000000
    1    0    0    2    4    0.010608    0.000000
    1    0    0    3    4   -0.005002    0.000000
    1    0    0    4    4    0.048663   -0.000000
    1    1    0    1    1   -0.020552    0.000000
    1    1    0    2    1    0.001408   -0.000000
    1    1    0    3    1    0.010608   -0.000000
    1    1    0    4    1    0.243911    0.000000
    1    1    0    1    2    0.002151   -0.000000
    1    1    0    2    2   -0.020552   -0.000000
    1    1    0    3    2    0.004193   -0.000000
    1    1    0    4    2   -0.003750   -0.000000
    1    1    0    1    3    0.009824    0.000000
    1    1    0    2    3    0.050209   -0.000000
    1    1    0    3    3   -0.020552    0.000000
    1    1    0    4    3   -0.232798    0.000000
    1    1    0    1    4    0.000420    0.000000
    1    1    0    2    4    0.003364   -0.000000
    1    1    0    3    4    0.001317    0.000000
    1    1    0    4    4   -0.020552   -0.000000
    1    2    0    1    1    0.003058    0.000000
    1    2    0    2    1   -0.045213   -0.000000
    1    2    0    3    1    0.003364    0.000000
    1    2    0    4    1    0.050209    0.000000
    1    2    0    1    2    0.000200   -0.000000
    1    2    0    2    2    0.003058   -0.000000
    1    2    0    3    2    0.000420   -0.000000
    1    2    0    4    2    0.009824   -0.000000
    1    2    0    1    3   -0.003657    0.000000
    1    2    0    2    3    0.002973   -0.000000
    1    2    0    3    3    0.003058    0.000000
    1    2    0    4    3    0.009874    0.000000
    1    2    0    1    4   -0.000196    0.000000
    1    2    0    2    4    0.000315   -0.000000
    1    2    0    3    4   -0.000586    0.000000
    1    2    0    4    4    0.003058   -0.000000
    1    3    0    1    1    0.000744    0.000000
    1    3    0    2    1    0.000136   -0.000000
    1    3    0    3    1    0.000315    0.000000
    1    3    0    4    1    0.002973    0.000000
    1    3    0    1    2    0.002103   -0.000000
    1    3    0    2    2    0.000744   -0.000000
    1    3    0    3    2   -0.000196   -0.000000
    1    3    0    4    2   -0.003657   -0.000000
    1    3    0    1    3    0.000858   -0.000000
    1    3    0    2    3   -0.000071   -0.000000
    1    3    0    3    3    0.000744    0.000000
    1    3    0    4    3    0.000031    0.000000
    1    3    0    1    4   -0.000316    0.000000
    1    3    0    2    4   -0.001537   -0.000000
    1    3    0    3    4   -0.000373    0.000000
    1    3    0    4    4    0.000744   -0.000000
    1    4    0    1    1    0.001263   -0.000000
    1    4    0    2    1   -0.000507   -0.000000
    1    4    0    3    1   -0.001537    0.000000
    1    4    0    4    1   -0.000071    0.000000
    1    4    0    1    2   -0.002848    0.000000
    1    4    0    2    2    0.001263    0.000000
    1    4    0    3    2   -0.000316   -0.000000
    1    4    0    4    2    0.000858    0.000000
    1    4    0    1    3    0.000858   -0.000000
    1    4    0    2    3   -0.000071    0.000000
    1    4    0    3    3    0.001263    0.000000
    1    4    0    4    3    0.001741    0.000000
    1    4    0    1    4   -0.000316   -0.000000
    1    4    0    2    4   -0.001537   -0.000000
    1    4    0    3    4    0.001275    0.000000
    1    4    0    4    4    0.001263   -0.000000
    2   -4    0    1    1   -0.000095    0.000000
    2   -4    0    2    1    0.001275   -0.000000
    2   -4    0    3    1   -0.000556    0.000000
    2   -4    0    4    1   -0.000316   -0.000000
    2   -4    0    1    2    0.001275    0.000000
    2   -4    0    2    2   -0.000095    0.000000
    2   -4    0    3    2   -0.000316    0.000000
    2   -4    0    4    2   -0.000556    0.000000
    2   -4    0    1    3   -0.000556   -0.000000
    2   -4    0    2    3   -0.000316   -0.000000
    2   -4    0    3    3   -0.000095    0.000000
    2   -4    0    4    3   -0.002848   -0.000000
    2   -4    0    1    4   -0.000316    0.000000
    2   -4    0    2    4   -0.000556   -0.000000
    2   -4    0    3    4   -0.002848    0.000000
    2   -4    0    4    4   -0.000095    0.000000
    2   -3    0    1    1    0.000202    0.000000
    2   -3    0    2    1   -0.000373   -0.000000
    2   -3    0    3    1   -0.000556    0.000000
    2   -3    0    4    1   -0.000316    0.000000
    2   -3    0    1    2   -0.000373    0.000000
    2   -3    0    2    2    0.000202   -0.000000
    2   -3    0    3    2   -0.000316   -0.000000
    2   -3    0    4    2   -0.000556    0.000000
    2   -3    0    1    3   -0.000116   -0.000000
    2   -3    0    2    3   -0.000196   -0.000000
    2   -3    0    3    3    0.000202    0.000000
    2   -3    0    4    3    0.002103    0.000000
    2   -3    0    1    4   -0.000196    0.000000
    2   -3    0    2    4   -0.000116   -0.000000
    2   -3    0    3    4    0.002103   -0.000000
    2   -3    0    4    4    0.000202   -0.000000
    2   -2    0    1    1   -0.001183    0.000000
    2   -2    0    2    1   -0.000586   -0.000000
    2   -2    0    3    1   -0.000116   -0.000000
    2   -2    0    4    1   -0.000196    0.000000
    2   -2    0    1    2   -0.000586    0.000000
    2   -2    0    2    2   -0.001183   -0.000000
    2   -2    0    3    2   -0.000196   -0.000000
    2   -2    0    4    2   -0.000116    0.000000
    2   -2    0    1    3    0.001407    0.000000
    2   -2    0    2    3    0.000420   -0.000000
    2   -2    0    3    3   -0.001183    0.000000
    2   -2    0    4    3    0.000200    0.000000
    2   -2    0    1    4    0.000420    0.000000
    2   -2    0    2    4    0.001407    0.000000
    2   -2    0    3    4    0.000200   -0.000000
    2   -2    0    4    4   -0.001183   -0.000000
    2   -1    0    1    1   -0.003395    0.000000
    2   -1    0    2    1    0.001317   -0.000000
    2   -1    0    3    1    0.001407   -0.000000
    2   -1    0    4    1    0.000420    0.000000
    2   -1    0    1    2    0.001317    0.000000
    2   -1    0    2    2   -0.003395   -0.000000
    2   -1    0    3    2    0.000420   -0.000000
    2   -1    0    4    2    0.001407   -0.000000
    2   -1    0    1    3    0.000918    0.000000
    2   -1    0    2    3    0.004193   -0.000000
    2   -1    0    3    3   -0.003395    0.000000
    2   -1    0    4    3    0.002151    0.000000
    2   -1    0    1    4    0.004193    0.000000
    2   -1    0    2    4    0.000918    0.000000
    2   -1    0    3    4    0.002151   -0.000000
    2   -1    0    4    4   -0.003395   -0.000000
    2    0    0    1    1    0.003636   -0.000000
    2    0    0    2    1   -0.005002   -0.000000
    2    0    0    3    1    0.000918   -0.000000
    2    0    0    4    1    0.004193    0.000000
    2    0    0    1    2   -0.005002    0.000000
    2    0    0    2    2    0.003636   -0.000000
    2    0    0    3    2    0.004193   -0.000000
    2    0    0    4    2    0.000918   -0.000000
    2    0    0    1    3    0.000918    0.000000
    2    0    0    2    3    0.004193    0.000000
    2    0    0    3    3    0.003636   -0.000000
    2    0    0    4    3   -0.050750    0.000000
    2    0    0    1    4    0.004193   -0.000000
    2    0    0    2    4    0.000918    0.000000
    2    0    0    3    4   -0.050750   -0.000000
    2    0    0    4    4    0.003636   -0.000000
    2    1    0    1    1   -0.003395   -0.000000
    2    1    0    2    1    0.001317   -0.000000
    2    1    0    3    1    0.000918   -0.000000
    2    1    0    4    1    0.004193   -0.000000
    2    1    0    1    2    0.001317    0.000000
    2    1    0    2    2   -0.003395    0.000000
    2    1    0    3    2    0.004193    0.000000
    2    1    0    4    2    0.000918   -0.000000
    2    1    0    1    3    0.001407    0.000000
    2    1    0    2    3    0.000420    0.000000
    2    1    0    3    3   -0.003395   -0.000000
    2    1    0    4    3    0.002151    0.000000
    2    1    0    1    4    0.000420   -0.000000
    2    1    0    2    4    0.001407    0.000000
    2    1    0    3    4    0.002151   -0.000000
    2    1    0    4    4   -0.003395    0.000000
    2    2    0    1    1   -0.001183   -0.000000
    2    2    0    2    1   -0.000586   -0.000000
    2    2    0    3    1    0.001407   -0.000000
    2    2    0    4    1    0.000420   -0.000000
    2    2    0    1    2   -0.000586    0.000000
    2    2    0    2    2   -0.001183    0.000000
    2    2    0    3    2    0.000420    0.000000
    2    2    0    4    2    0.001407   -0.000000
    2    2    0    1    3   -0.000116    0.000000
    2    2    0    2    3   -0.000196    0.000000
    2    2    0    3    3   -0.001183   -0.000000
    2    2    0    4    3    0.000200    0.000000
    2    2    0    1    4   -0.000196   -0.000000
    2    2    0    2    4   -0.000116   -0.000000
    2    2    0    3    4    0.000200   -0.000000
    2    2    0    4    4   -0.001183    0.000000
    2    3    0    1    1    0.000202   -0.000000
    2    3    0    2    1   -0.000373   -0.000000
    2    3    0    3    1   -0.000116    0.000000
    2    3    0    4    1   -0.000196   -0.000000
    2    3    0    1    2   -0.000373    0.000000
    2    3    0    2    2    0.000202    0.000000
    2    3    0    3    2   -0.000196    0.000000
    2    3    0    4    2   -0.000116    0.000000
    2    3    0    1    3   -0.000556   -0.000000
    2    3    0    2    3   -0.000316    0.000000
    2    3    0    3    3    0.000202   -0.000000
    2    3    0    4    3    0.002103    0.000000
    2    3    0    1    4   -0.000316   -0.000000
    2    3    0    2    4   -0.000556   -0.000000
    2    3    0    3    4    0.002103   -0.000000
    2    3    0    4    4    0.000202    0.000000
    2    4    0    1    1   -0.000095   -0.000000
    2    4    0    2    1    0.001275   -0.000000
    2    4    0    3    1   -0.000556    0.000000
    2    4    0    4    1   -0.000316   -0.000000
    2    4    0    1    2    0.001275    0.000000
    2    4    0    2    2   -0.000095   -0.000000
    2    4    0    3    2   -0.000316    0.000000
    2    4    0    4    2   -0.000556    0.000000
    2    4    0    1    3   -0.000556   -0.000000
    2    4    0    2    3   -0.000316   -0.000000
    2    4    0    3    3   -0.000095   -0.000000
    2    4    0    4    3   -0.002848   -0.000000
    2    4    0    1    4   -0.000316    0.000000
    2    4    0    2    4   -0.000556   -0.000000
    2    4    0    3    4   -0.002848    0.000000
    2    4    0    4    4   -0.000095   -0.000000
