   2   2   1   0
  0.3943865E+02  0.2464138E-09  0.2464138E-09  0.1500000E-08  0.5000000E-15
   1.0000000000000000E-004
  CAR 
 C                                       
      5.00000000    -15.00000000 3000     -2.23923135      1.00000000
    -15.000  0.3563E+03  0.2376E+01
    -14.993  0.2195E+00  0.2378E+01
    -14.987  0.2700E-01  0.2378E+01
    -14.980  0.7061E-02  0.2378E+01
    -14.973  0.8318E-01  0.2378E+01
    -14.967  0.5494E+00  0.2382E+01
    -14.960  0.1660E+01  0.2393E+01
    -14.953  0.2325E+01  0.2409E+01
    -14.947  0.1516E+01  0.2419E+01
    -14.940  0.4579E+00  0.2422E+01
    -14.933  0.6311E-01  0.2422E+01
    -14.927  0.4056E-02  0.2422E+01
    -14.920  0.5203E-02  0.2422E+01
    -14.913  0.6897E-01  0.2423E+01
    -14.907  0.4032E+00  0.2425E+01
    -14.900  0.1026E+01  0.2432E+01
    -14.893  0.1142E+01  0.2440E+01
    -14.887  0.5567E+00  0.2444E+01
    -14.880  0.1183E+00  0.2444E+01
    -14.873  0.1149E-01  0.2444E+01
    -14.867  0.2051E-01  0.2445E+01
    -14.860  0.2860E+00  0.2446E+01
    -14.853  0.1772E+01  0.2458E+01
    -14.847  0.4827E+01  0.2491E+01
    -14.840  0.5819E+01  0.2529E+01
    -14.833  0.3115E+01  0.2550E+01
    -14.827  0.7398E+00  0.2555E+01
    -14.820  0.7766E-01  0.2556E+01
    -14.813  0.4329E-02  0.2556E+01
    -14.807  0.1672E-01  0.2556E+01
    -14.800  0.1588E+00  0.2557E+01
    -14.793  0.6569E+00  0.2561E+01
    -14.787  0.1186E+01  0.2569E+01
    -14.780  0.9373E+00  0.2575E+01
    -14.773  0.3240E+00  0.2577E+01
    -14.767  0.5110E-01  0.2578E+01
    -14.760  0.4454E-01  0.2578E+01
    -14.753  0.3156E+00  0.2580E+01
    -14.747  0.1129E+01  0.2588E+01
    -14.740  0.2026E+01  0.2601E+01
    -14.733  0.1924E+01  0.2614E+01
    -14.727  0.9783E+00  0.2621E+01
    -14.720  0.4028E+00  0.2623E+01
    -14.713  0.6995E+00  0.2628E+01
    -14.707  0.1226E+01  0.2636E+01
    -14.700  0.1186E+01  0.2644E+01
    -14.693  0.1168E+01  0.2652E+01
    -14.687  0.1325E+01  0.2661E+01
    -14.680  0.1171E+01  0.2668E+01
    -14.673  0.1248E+01  0.2677E+01
    -14.667  0.1221E+01  0.2685E+01
    -14.660  0.9255E+00  0.2691E+01
    -14.653  0.1121E+01  0.2699E+01
    -14.647  0.1218E+01  0.2707E+01
    -14.640  0.9798E+00  0.2713E+01
    -14.633  0.1536E+01  0.2723E+01
    -14.627  0.2554E+01  0.2740E+01
    -14.620  0.2769E+01  0.2759E+01
    -14.613  0.2396E+01  0.2775E+01
    -14.607  0.1957E+01  0.2788E+01
    -14.600  0.1256E+01  0.2796E+01
    -14.593  0.4601E+00  0.2799E+01
    -14.587  0.8013E-01  0.2800E+01
    -14.580  0.6188E-02  0.2800E+01
    -14.573  0.2063E-03  0.2800E+01
    -14.567  0.2928E-05  0.2800E+01
    -14.560  0.1755E-07  0.2800E+01
    -14.553  0.4417E-10  0.2800E+01
    -14.547  0.4661E-13  0.2800E+01
    -14.540  0.0000E+00  0.2800E+01
    -14.533  0.0000E+00  0.2800E+01
    -14.527  0.0000E+00  0.2800E+01
    -14.520  0.0000E+00  0.2800E+01
    -14.513  0.0000E+00  0.2800E+01
    -14.507  0.0000E+00  0.2800E+01
    -14.500  0.0000E+00  0.2800E+01
    -14.493  0.0000E+00  0.2800E+01
    -14.486  0.0000E+00  0.2800E+01
    -14.480  0.0000E+00  0.2800E+01
    -14.473  0.0000E+00  0.2800E+01
    -14.466  0.0000E+00  0.2800E+01
    -14.460  0.0000E+00  0.2800E+01
    -14.453  0.0000E+00  0.2800E+01
    -14.446  0.0000E+00  0.2800E+01
    -14.440  0.0000E+00  0.2800E+01
    -14.433  0.0000E+00  0.2800E+01
    -14.426  0.0000E+00  0.2800E+01
    -14.420  0.0000E+00  0.2800E+01
    -14.413  0.0000E+00  0.2800E+01
    -14.406  0.8379E-13  0.2800E+01
    -14.400  0.7417E-10  0.2800E+01
    -14.393  0.2746E-07  0.2800E+01
    -14.386  0.4269E-05  0.2800E+01
    -14.380  0.2803E-03  0.2800E+01
    -14.373  0.7828E-02  0.2800E+01
    -14.366  0.9377E-01  0.2801E+01
    -14.360  0.4858E+00  0.2804E+01
    -14.353  0.1097E+01  0.2811E+01
    -14.346  0.1084E+01  0.2818E+01
    -14.340  0.4773E+00  0.2822E+01
    -14.333  0.1906E+00  0.2823E+01
    -14.326  0.5188E+00  0.2826E+01
    -14.320  0.1115E+01  0.2834E+01
    -14.313  0.1063E+01  0.2841E+01
    -14.306  0.4437E+00  0.2844E+01
    -14.300  0.8065E-01  0.2844E+01
    -14.293  0.6337E-02  0.2844E+01
    -14.286  0.2134E-03  0.2844E+01
    -14.280  0.3055E-05  0.2844E+01
    -14.273  0.1847E-07  0.2844E+01
    -14.266  0.4684E-10  0.2844E+01
    -14.260  0.4957E-13  0.2844E+01
    -14.253  0.0000E+00  0.2844E+01
    -14.246  0.0000E+00  0.2844E+01
    -14.240  0.0000E+00  0.2844E+01
    -14.233  0.0000E+00  0.2844E+01
    -14.226  0.0000E+00  0.2844E+01
    -14.220  0.0000E+00  0.2844E+01
    -14.213  0.0000E+00  0.2844E+01
    -14.206  0.0000E+00  0.2844E+01
    -14.200  0.0000E+00  0.2844E+01
    -14.193  0.0000E+00  0.2844E+01
    -14.186  0.0000E+00  0.2844E+01
    -14.180  0.0000E+00  0.2844E+01
    -14.173  0.0000E+00  0.2844E+01
    -14.166  0.0000E+00  0.2844E+01
    -14.160  0.0000E+00  0.2844E+01
    -14.153  0.0000E+00  0.2844E+01
    -14.146  0.0000E+00  0.2844E+01
    -14.140  0.6104E-14  0.2844E+01
    -14.133  0.7337E-11  0.2844E+01
    -14.126  0.3703E-08  0.2844E+01
    -14.120  0.7833E-06  0.2844E+01
    -14.113  0.6983E-04  0.2844E+01
    -14.106  0.2641E-02  0.2844E+01
    -14.100  0.4270E-01  0.2845E+01
    -14.093  0.2978E+00  0.2847E+01
    -14.086  0.9027E+00  0.2853E+01
    -14.080  0.1196E+01  0.2861E+01
    -14.073  0.6941E+00  0.2865E+01
    -14.066  0.1758E+00  0.2867E+01
    -14.060  0.1931E-01  0.2867E+01
    -14.053  0.9123E-03  0.2867E+01
    -14.046  0.1838E-04  0.2867E+01
    -14.040  0.1567E-06  0.2867E+01
    -14.033  0.5623E-09  0.2867E+01
    -14.026  0.8442E-12  0.2867E+01
    -14.020  0.7399E-15  0.2867E+01
    -14.013  0.0000E+00  0.2867E+01
    -14.006  0.0000E+00  0.2867E+01
    -14.000  0.0000E+00  0.2867E+01
    -13.993  0.0000E+00  0.2867E+01
    -13.986  0.0000E+00  0.2867E+01
    -13.980  0.0000E+00  0.2867E+01
    -13.973  0.0000E+00  0.2867E+01
    -13.966  0.1069E-12  0.2867E+01
    -13.960  0.9198E-10  0.2867E+01
    -13.953  0.3306E-07  0.2867E+01
    -13.946  0.4991E-05  0.2867E+01
    -13.940  0.3183E-03  0.2867E+01
    -13.933  0.8636E-02  0.2867E+01
    -13.926  0.1005E+00  0.2867E+01
    -13.920  0.5063E+00  0.2871E+01
    -13.913  0.1111E+01  0.2878E+01
    -13.906  0.1068E+01  0.2885E+01
    -13.900  0.4487E+00  0.2888E+01
    -13.893  0.8215E-01  0.2889E+01
    -13.886  0.6503E-02  0.2889E+01
    -13.880  0.2206E-03  0.2889E+01
    -13.873  0.3182E-05  0.2889E+01
    -13.866  0.1938E-07  0.2889E+01
    -13.860  0.4954E-10  0.2889E+01
    -13.853  0.1863E-12  0.2889E+01
    -13.846  0.1116E-09  0.2889E+01
    -13.840  0.3905E-07  0.2889E+01
    -13.833  0.5741E-05  0.2889E+01
    -13.826  0.3566E-03  0.2889E+01
    -13.820  0.9427E-02  0.2889E+01
    -13.813  0.1069E+00  0.2890E+01
    -13.806  0.5250E+00  0.2893E+01
    -13.800  0.1124E+01  0.2901E+01
    -13.793  0.1052E+01  0.2908E+01
    -13.786  0.4313E+00  0.2911E+01
    -13.780  0.7697E-01  0.2911E+01
    -13.773  0.5937E-02  0.2911E+01
    -13.766  0.1963E-03  0.2911E+01
    -13.760  0.2758E-05  0.2911E+01
    -13.753  0.1635E-07  0.2911E+01
    -13.746  0.4070E-10  0.2911E+01
    -13.740  0.4217E-13  0.2911E+01
    -13.733  0.0000E+00  0.2911E+01
    -13.726  0.0000E+00  0.2911E+01
    -13.720  0.0000E+00  0.2911E+01
    -13.713  0.0000E+00  0.2911E+01
    -13.706  0.0000E+00  0.2911E+01
    -13.700  0.0000E+00  0.2911E+01
    -13.693  0.0000E+00  0.2911E+01
    -13.686  0.0000E+00  0.2911E+01
    -13.680  0.0000E+00  0.2911E+01
    -13.673  0.0000E+00  0.2911E+01
    -13.666  0.0000E+00  0.2911E+01
    -13.660  0.0000E+00  0.2911E+01
    -13.653  0.0000E+00  0.2911E+01
    -13.646  0.0000E+00  0.2911E+01
    -13.640  0.0000E+00  0.2911E+01
    -13.633  0.0000E+00  0.2911E+01
    -13.626  0.0000E+00  0.2911E+01
    -13.620  0.0000E+00  0.2911E+01
    -13.613  0.0000E+00  0.2911E+01
    -13.606  0.0000E+00  0.2911E+01
    -13.600  0.0000E+00  0.2911E+01
    -13.593  0.0000E+00  0.2911E+01
    -13.586  0.0000E+00  0.2911E+01
    -13.580  0.0000E+00  0.2911E+01
    -13.573  0.0000E+00  0.2911E+01
    -13.566  0.0000E+00  0.2911E+01
    -13.560  0.3700E-15  0.2911E+01
    -13.553  0.5165E-12  0.2911E+01
    -13.546  0.3660E-09  0.2911E+01
    -13.540  0.1086E-06  0.2911E+01
    -13.533  0.1355E-04  0.2911E+01
    -13.526  0.7182E-03  0.2911E+01
    -13.520  0.1636E-01  0.2911E+01
    -13.513  0.1640E+00  0.2912E+01
    -13.506  0.7537E+00  0.2917E+01
    -13.499  0.1706E+01  0.2929E+01
    -13.493  0.2068E+01  0.2943E+01
    -13.486  0.1385E+01  0.2952E+01
    -13.479  0.4833E+00  0.2955E+01
    -13.473  0.8076E-01  0.2956E+01
    -13.466  0.6082E-02  0.2956E+01
    -13.459  0.1996E-03  0.2956E+01
    -13.453  0.2801E-05  0.2956E+01
    -13.446  0.1663E-07  0.2956E+01
    -13.439  0.4149E-10  0.2956E+01
    -13.433  0.4328E-13  0.2956E+01
    -13.426  0.0000E+00  0.2956E+01
    -13.419  0.0000E+00  0.2956E+01
    -13.413  0.0000E+00  0.2956E+01
    -13.406  0.0000E+00  0.2956E+01
    -13.399  0.0000E+00  0.2956E+01
    -13.393  0.0000E+00  0.2956E+01
    -13.386  0.0000E+00  0.2956E+01
    -13.379  0.0000E+00  0.2956E+01
    -13.373  0.0000E+00  0.2956E+01
    -13.366  0.0000E+00  0.2956E+01
    -13.359  0.0000E+00  0.2956E+01
    -13.353  0.0000E+00  0.2956E+01
    -13.346  0.0000E+00  0.2956E+01
    -13.339  0.0000E+00  0.2956E+01
    -13.333  0.0000E+00  0.2956E+01
    -13.326  0.0000E+00  0.2956E+01
    -13.319  0.0000E+00  0.2956E+01
    -13.313  0.0000E+00  0.2956E+01
    -13.306  0.0000E+00  0.2956E+01
    -13.299  0.0000E+00  0.2956E+01
    -13.293  0.0000E+00  0.2956E+01
    -13.286  0.0000E+00  0.2956E+01
    -13.279  0.0000E+00  0.2956E+01
    -13.273  0.0000E+00  0.2956E+01
    -13.266  0.0000E+00  0.2956E+01
    -13.259  0.0000E+00  0.2956E+01
    -13.253  0.0000E+00  0.2956E+01
    -13.246  0.3700E-15  0.2956E+01
    -13.239  0.6848E-12  0.2956E+01
    -13.233  0.4681E-09  0.2956E+01
    -13.226  0.1340E-06  0.2956E+01
    -13.219  0.1612E-04  0.2956E+01
    -13.213  0.8212E-03  0.2956E+01
    -13.206  0.1783E-01  0.2956E+01
    -13.199  0.1665E+00  0.2957E+01
    -13.193  0.6741E+00  0.2961E+01
    -13.186  0.1191E+01  0.2969E+01
    -13.179  0.9214E+00  0.2975E+01
    -13.173  0.3117E+00  0.2977E+01
    -13.166  0.4583E-01  0.2978E+01
    -13.159  0.2908E-02  0.2978E+01
    -13.153  0.7889E-04  0.2978E+01
    -13.146  0.9083E-06  0.2978E+01
    -13.139  0.4407E-08  0.2978E+01
    -13.133  0.8966E-11  0.2978E+01
    -13.126  0.7399E-14  0.2978E+01
    -13.119  0.2960E-14  0.2978E+01
    -13.113  0.3964E-11  0.2978E+01
    -13.106  0.2167E-08  0.2978E+01
    -13.099  0.4965E-06  0.2978E+01
    -13.093  0.4791E-04  0.2978E+01
    -13.086  0.1960E-02  0.2978E+01
    -13.079  0.3425E-01  0.2978E+01
    -13.073  0.2579E+00  0.2980E+01
    -13.066  0.8439E+00  0.2985E+01
    -13.059  0.1207E+01  0.2993E+01
    -13.053  0.7553E+00  0.2998E+01
    -13.046  0.2065E+00  0.3000E+01
    -13.039  0.2450E-01  0.3000E+01
    -13.033  0.1251E-02  0.3000E+01
    -13.026  0.2727E-04  0.3000E+01
    -13.019  0.2518E-06  0.3000E+01
    -13.013  0.9781E-09  0.3000E+01
    -13.006  0.1591E-11  0.3000E+01
    -12.999  0.1110E-14  0.3000E+01
    -12.993  0.0000E+00  0.3000E+01
    -12.986  0.0000E+00  0.3000E+01
    -12.979  0.0000E+00  0.3000E+01
    -12.973  0.0000E+00  0.3000E+01
    -12.966  0.0000E+00  0.3000E+01
    -12.959  0.0000E+00  0.3000E+01
    -12.953  0.0000E+00  0.3000E+01
    -12.946  0.0000E+00  0.3000E+01
    -12.939  0.0000E+00  0.3000E+01
    -12.933  0.0000E+00  0.3000E+01
    -12.926  0.0000E+00  0.3000E+01
    -12.919  0.1850E-15  0.3000E+01
    -12.913  0.3670E-12  0.3000E+01
    -12.906  0.2712E-09  0.3000E+01
    -12.899  0.8385E-07  0.3000E+01
    -12.893  0.1090E-04  0.3000E+01
    -12.886  0.5991E-03  0.3000E+01
    -12.879  0.1403E-01  0.3000E+01
    -12.873  0.1412E+00  0.3001E+01
    -12.866  0.6155E+00  0.3005E+01
    -12.859  0.1171E+01  0.3013E+01
    -12.853  0.9749E+00  0.3019E+01
    -12.846  0.3550E+00  0.3022E+01
    -12.839  0.5626E-01  0.3022E+01
    -12.833  0.5027E-02  0.3022E+01
    -12.826  0.2784E-01  0.3022E+01
    -12.819  0.2801E+00  0.3024E+01
    -12.813  0.1229E+01  0.3032E+01
    -12.806  0.2388E+01  0.3048E+01
    -12.799  0.2278E+01  0.3064E+01
    -12.793  0.1650E+01  0.3075E+01
    -12.786  0.1300E+01  0.3083E+01
    -12.779  0.6663E+00  0.3088E+01
    -12.773  0.1618E+00  0.3089E+01
    -12.766  0.5244E-01  0.3089E+01
    -12.759  0.2713E+00  0.3091E+01
    -12.753  0.9362E+00  0.3097E+01
    -12.746  0.1657E+01  0.3108E+01
    -12.739  0.1815E+01  0.3120E+01
    -12.733  0.1311E+01  0.3129E+01
    -12.726  0.5273E+00  0.3133E+01
    -12.719  0.1008E+00  0.3133E+01
    -12.713  0.8556E-02  0.3133E+01
    -12.706  0.3135E-03  0.3133E+01
    -12.699  0.4895E-05  0.3133E+01
    -12.693  0.4570E-07  0.3133E+01
    -12.686  0.2331E-05  0.3133E+01
    -12.679  0.1710E-03  0.3133E+01
    -12.673  0.5334E-02  0.3133E+01
    -12.666  0.7127E-01  0.3134E+01
    -12.659  0.4114E+00  0.3137E+01
    -12.653  0.1034E+01  0.3143E+01
    -12.646  0.1141E+01  0.3151E+01
    -12.639  0.6042E+00  0.3155E+01
    -12.633  0.4728E+00  0.3158E+01
    -12.626  0.9908E+00  0.3165E+01
    -12.619  0.1206E+01  0.3173E+01
    -12.613  0.8807E+00  0.3179E+01
    -12.606  0.1001E+01  0.3185E+01
    -12.599  0.1218E+01  0.3194E+01
    -12.593  0.7384E+00  0.3199E+01
    -12.586  0.1974E+00  0.3200E+01
    -12.579  0.2291E-01  0.3200E+01
    -12.573  0.1144E-02  0.3200E+01
    -12.566  0.2858E-04  0.3200E+01
    -12.559  0.2765E-03  0.3200E+01
    -12.553  0.7747E-02  0.3200E+01
    -12.546  0.9337E-01  0.3201E+01
    -12.539  0.4927E+00  0.3204E+01
    -12.533  0.1200E+01  0.3212E+01
    -12.526  0.1605E+01  0.3223E+01
    -12.519  0.1591E+01  0.3233E+01
    -12.513  0.1146E+01  0.3241E+01
    -12.506  0.4436E+00  0.3244E+01
    -12.499  0.7871E-01  0.3244E+01
    -12.492  0.6102E-02  0.3244E+01
    -12.486  0.2031E-03  0.3244E+01
    -12.479  0.2876E-05  0.3244E+01
    -12.472  0.1719E-07  0.3244E+01
    -12.466  0.4312E-10  0.3244E+01
    -12.459  0.4513E-13  0.3244E+01
    -12.452  0.5105E-13  0.3244E+01
    -12.446  0.4795E-10  0.3244E+01
    -12.439  0.1884E-07  0.3244E+01
    -12.432  0.3108E-05  0.3244E+01
    -12.426  0.2164E-03  0.3244E+01
    -12.419  0.6410E-02  0.3244E+01
    -12.412  0.8159E-01  0.3245E+01
    -12.406  0.4545E+00  0.3248E+01
    -12.399  0.1166E+01  0.3256E+01
    -12.392  0.1620E+01  0.3267E+01
    -12.386  0.1621E+01  0.3277E+01
    -12.379  0.1169E+01  0.3285E+01
    -12.372  0.4572E+00  0.3288E+01
    -12.366  0.8238E-01  0.3289E+01
    -12.359  0.6497E-02  0.3289E+01
    -12.352  0.2202E-03  0.3289E+01
    -12.346  0.3174E-05  0.3289E+01
    -12.339  0.1932E-07  0.3289E+01
    -12.332  0.4936E-10  0.3289E+01
    -12.326  0.5253E-13  0.3289E+01
    -12.319  0.0000E+00  0.3289E+01
    -12.312  0.0000E+00  0.3289E+01
    -12.306  0.0000E+00  0.3289E+01
    -12.299  0.0000E+00  0.3289E+01
    -12.292  0.0000E+00  0.3289E+01
    -12.286  0.0000E+00  0.3289E+01
    -12.279  0.0000E+00  0.3289E+01
    -12.272  0.3755E-13  0.3289E+01
    -12.266  0.3660E-10  0.3289E+01
    -12.259  0.1492E-07  0.3289E+01
    -12.252  0.2552E-05  0.3289E+01
    -12.246  0.1842E-03  0.3289E+01
    -12.239  0.5652E-02  0.3289E+01
    -12.232  0.7429E-01  0.3289E+01
    -12.226  0.4221E+00  0.3292E+01
    -12.219  0.1044E+01  0.3299E+01
    -12.212  0.1130E+01  0.3307E+01
    -12.206  0.5355E+00  0.3310E+01
    -12.199  0.1176E+00  0.3311E+01
    -12.192  0.9724E-01  0.3312E+01
    -12.186  0.4716E+00  0.3315E+01
    -12.179  0.1162E+01  0.3323E+01
    -12.172  0.1568E+01  0.3333E+01
    -12.166  0.1787E+01  0.3345E+01
    -12.159  0.2027E+01  0.3359E+01
    -12.152  0.1734E+01  0.3370E+01
    -12.146  0.8905E+00  0.3376E+01
    -12.139  0.2323E+00  0.3378E+01
    -12.132  0.2787E-01  0.3378E+01
    -12.126  0.1467E-02  0.3378E+01
    -12.119  0.3317E-04  0.3378E+01
    -12.112  0.3184E-06  0.3378E+01
    -12.106  0.1287E-08  0.3378E+01
    -12.099  0.2179E-11  0.3378E+01
    -12.092  0.2035E-14  0.3378E+01
    -12.086  0.9058E-12  0.3378E+01
    -12.079  0.5979E-09  0.3378E+01
    -12.072  0.1652E-06  0.3378E+01
    -12.066  0.1921E-04  0.3378E+01
    -12.059  0.9450E-03  0.3378E+01
    -12.052  0.1983E-01  0.3378E+01
    -12.046  0.1790E+00  0.3379E+01
    -12.039  0.7008E+00  0.3384E+01
    -12.032  0.1198E+01  0.3392E+01
    -12.026  0.8963E+00  0.3398E+01
    -12.019  0.2932E+00  0.3400E+01
    -12.012  0.4169E-01  0.3400E+01
    -12.006  0.2556E-02  0.3400E+01
    -11.999  0.6701E-04  0.3400E+01
    -11.992  0.7452E-06  0.3400E+01
    -11.986  0.3492E-08  0.3400E+01
    -11.979  0.6859E-11  0.3400E+01
    -11.972  0.5549E-14  0.3400E+01
    -11.966  0.0000E+00  0.3400E+01
    -11.959  0.0000E+00  0.3400E+01
    -11.952  0.0000E+00  0.3400E+01
    -11.946  0.0000E+00  0.3400E+01
    -11.939  0.2701E-13  0.3400E+01
    -11.932  0.2726E-10  0.3400E+01
    -11.926  0.1156E-07  0.3400E+01
    -11.919  0.2057E-05  0.3400E+01
    -11.912  0.1544E-03  0.3400E+01
    -11.906  0.4926E-02  0.3400E+01
    -11.899  0.6729E-01  0.3400E+01
    -11.892  0.3971E+00  0.3403E+01
    -11.886  0.1020E+01  0.3410E+01
    -11.879  0.1146E+01  0.3418E+01
    -11.872  0.5638E+00  0.3421E+01
    -11.866  0.1213E+00  0.3422E+01
    -11.859  0.2032E-01  0.3422E+01
    -11.852  0.1047E+00  0.3423E+01
    -11.846  0.5172E+00  0.3426E+01
    -11.839  0.1119E+01  0.3434E+01
    -11.832  0.1059E+01  0.3441E+01
    -11.826  0.4386E+00  0.3444E+01
    -11.819  0.8416E-01  0.3444E+01
    -11.812  0.7493E-01  0.3445E+01
    -11.806  0.4026E+00  0.3448E+01
    -11.799  0.1025E+01  0.3454E+01
    -11.792  0.1143E+01  0.3462E+01
    -11.786  0.5576E+00  0.3466E+01
    -11.779  0.1186E+00  0.3467E+01
    -11.772  0.1092E-01  0.3467E+01
    -11.766  0.4322E-03  0.3467E+01
    -11.759  0.2708E-04  0.3467E+01
    -11.752  0.9687E-03  0.3467E+01
    -11.746  0.2020E-01  0.3467E+01
    -11.739  0.1813E+00  0.3468E+01
    -11.732  0.7056E+00  0.3473E+01
    -11.726  0.1199E+01  0.3481E+01
    -11.719  0.8918E+00  0.3487E+01
    -11.712  0.2900E+00  0.3489E+01
    -11.706  0.4099E-01  0.3489E+01
    -11.699  0.2498E-02  0.3489E+01
    -11.692  0.6510E-04  0.3489E+01
    -11.686  0.7194E-06  0.3489E+01
    -11.679  0.5755E-08  0.3489E+01
    -11.672  0.5424E-06  0.3489E+01
    -11.666  0.5155E-04  0.3489E+01
    -11.659  0.2077E-02  0.3489E+01
    -11.652  0.3576E-01  0.3489E+01
    -11.646  0.2653E+00  0.3491E+01
    -11.639  0.8554E+00  0.3497E+01
    -11.632  0.1205E+01  0.3505E+01
    -11.626  0.7435E+00  0.3510E+01
    -11.619  0.2005E+00  0.3511E+01
    -11.612  0.3053E-01  0.3511E+01
    -11.606  0.8874E-01  0.3512E+01
    -11.599  0.4663E+00  0.3515E+01
    -11.592  0.1082E+01  0.3522E+01
    -11.586  0.1098E+01  0.3529E+01
    -11.579  0.4880E+00  0.3533E+01
    -11.572  0.9448E-01  0.3533E+01
    -11.566  0.7912E-02  0.3533E+01
    -11.559  0.2842E-03  0.3533E+01
    -11.552  0.4342E-05  0.3533E+01
    -11.546  0.2802E-07  0.3533E+01
    -11.539  0.7591E-10  0.3533E+01
    -11.532  0.8583E-13  0.3533E+01
    -11.526  0.0000E+00  0.3533E+01
    -11.519  0.0000E+00  0.3533E+01
    -11.512  0.0000E+00  0.3533E+01
    -11.506  0.0000E+00  0.3533E+01
    -11.499  0.0000E+00  0.3533E+01
    -11.492  0.0000E+00  0.3533E+01
    -11.485  0.3700E-15  0.3533E+01
    -11.479  0.7464E-12  0.3533E+01
    -11.472  0.5049E-09  0.3533E+01
    -11.465  0.1430E-06  0.3533E+01
    -11.459  0.1704E-04  0.3533E+01
    -11.452  0.8615E-03  0.3533E+01
    -11.445  0.1869E-01  0.3533E+01
    -11.439  0.1777E+00  0.3535E+01
    -11.432  0.7729E+00  0.3540E+01
    -11.425  0.1669E+01  0.3551E+01
    -11.419  0.2003E+01  0.3564E+01
    -11.412  0.1397E+01  0.3574E+01
    -11.405  0.5226E+00  0.3577E+01
    -11.399  0.9407E-01  0.3578E+01
    -11.392  0.7612E-02  0.3578E+01
    -11.385  0.2677E-03  0.3578E+01
    -11.379  0.4023E-05  0.3578E+01
    -11.372  0.2557E-07  0.3578E+01
    -11.365  0.6827E-10  0.3578E+01
    -11.359  0.7621E-13  0.3578E+01
    -11.352  0.0000E+00  0.3578E+01
    -11.345  0.0000E+00  0.3578E+01
    -11.339  0.2035E-14  0.3578E+01
    -11.332  0.2819E-11  0.3578E+01
    -11.325  0.1611E-08  0.3578E+01
    -11.319  0.3856E-06  0.3578E+01
    -11.312  0.3890E-04  0.3578E+01
    -11.305  0.1667E-02  0.3578E+01
    -11.299  0.3071E-01  0.3578E+01
    -11.292  0.2491E+00  0.3580E+01
    -11.285  0.9330E+00  0.3586E+01
    -11.279  0.1776E+01  0.3598E+01
    -11.272  0.1937E+01  0.3611E+01
    -11.265  0.1242E+01  0.3619E+01
    -11.259  0.4222E+00  0.3622E+01
    -11.252  0.6802E-01  0.3622E+01
    -11.245  0.4940E-02  0.3622E+01
    -11.239  0.2381E-02  0.3622E+01
    -11.232  0.3768E-01  0.3622E+01
    -11.225  0.2746E+00  0.3624E+01
    -11.219  0.8694E+00  0.3630E+01
    -11.212  0.1203E+01  0.3638E+01
    -11.205  0.7290E+00  0.3643E+01
    -11.199  0.1929E+00  0.3644E+01
    -11.192  0.2214E-01  0.3644E+01
    -11.185  0.1094E-02  0.3644E+01
    -11.179  0.2305E-04  0.3644E+01
    -11.172  0.2056E-06  0.3644E+01
    -11.165  0.7720E-09  0.3644E+01
    -11.159  0.1213E-11  0.3644E+01
    -11.152  0.7399E-15  0.3644E+01
    -11.145  0.0000E+00  0.3644E+01
    -11.139  0.0000E+00  0.3644E+01
    -11.132  0.0000E+00  0.3644E+01
    -11.125  0.0000E+00  0.3644E+01
    -11.119  0.0000E+00  0.3644E+01
    -11.112  0.0000E+00  0.3644E+01
    -11.105  0.0000E+00  0.3644E+01
    -11.099  0.0000E+00  0.3644E+01
    -11.092  0.0000E+00  0.3644E+01
    -11.085  0.1110E-14  0.3644E+01
    -11.079  0.1610E-11  0.3644E+01
    -11.072  0.9883E-09  0.3644E+01
    -11.065  0.2540E-06  0.3644E+01
    -11.059  0.2748E-04  0.3644E+01
    -11.052  0.1259E-02  0.3644E+01
    -11.045  0.2461E-01  0.3645E+01
    -11.039  0.2071E+00  0.3646E+01
    -11.032  0.7566E+00  0.3651E+01
    -11.025  0.1210E+01  0.3659E+01
    -11.019  0.8944E+00  0.3665E+01
    -11.012  0.5934E+00  0.3669E+01
    -11.005  0.9866E+00  0.3676E+01
    -10.999  0.1182E+01  0.3683E+01
    -10.992  0.6404E+00  0.3688E+01
    -10.985  0.1518E+00  0.3689E+01
    -10.979  0.2133E-01  0.3689E+01
    -10.972  0.7622E-01  0.3689E+01
    -10.965  0.4264E+00  0.3692E+01
    -10.959  0.1048E+01  0.3699E+01
    -10.952  0.1127E+01  0.3707E+01
    -10.945  0.5305E+00  0.3710E+01
    -10.939  0.1088E+00  0.3711E+01
    -10.932  0.9667E-02  0.3711E+01
    -10.925  0.3684E-03  0.3711E+01
    -10.919  0.5976E-05  0.3711E+01
    -10.912  0.4096E-07  0.3711E+01
    -10.905  0.1179E-09  0.3711E+01
    -10.899  0.1421E-12  0.3711E+01
    -10.892  0.0000E+00  0.3711E+01
    -10.885  0.0000E+00  0.3711E+01
    -10.879  0.0000E+00  0.3711E+01
    -10.872  0.1850E-14  0.3711E+01
    -10.865  0.2700E-11  0.3711E+01
    -10.859  0.1551E-08  0.3711E+01
    -10.852  0.3733E-06  0.3711E+01
    -10.845  0.3783E-04  0.3711E+01
    -10.839  0.1624E-02  0.3711E+01
    -10.832  0.2978E-01  0.3711E+01
    -10.825  0.2352E+00  0.3713E+01
    -10.819  0.8069E+00  0.3718E+01
    -10.812  0.1215E+01  0.3726E+01
    -10.805  0.8739E+00  0.3732E+01
    -10.799  0.6719E+00  0.3737E+01
    -10.792  0.1092E+01  0.3744E+01
    -10.785  0.1116E+01  0.3751E+01
    -10.779  0.5107E+00  0.3755E+01
    -10.772  0.1020E+00  0.3755E+01
    -10.765  0.8817E-02  0.3756E+01
    -10.759  0.3269E-03  0.3756E+01
    -10.752  0.5159E-05  0.3756E+01
    -10.745  0.3438E-07  0.3756E+01
    -10.739  0.9626E-10  0.3756E+01
    -10.732  0.1128E-12  0.3756E+01
    -10.725  0.0000E+00  0.3756E+01
    -10.719  0.0000E+00  0.3756E+01
    -10.712  0.0000E+00  0.3756E+01
    -10.705  0.0000E+00  0.3756E+01
    -10.699  0.0000E+00  0.3756E+01
    -10.692  0.0000E+00  0.3756E+01
    -10.685  0.3700E-15  0.3756E+01
    -10.679  0.6341E-12  0.3756E+01
    -10.672  0.4396E-09  0.3756E+01
    -10.665  0.1280E-06  0.3756E+01
    -10.659  0.1578E-04  0.3756E+01
    -10.652  0.8324E-03  0.3756E+01
    -10.645  0.1912E-01  0.3756E+01
    -10.639  0.1956E+00  0.3757E+01
    -10.632  0.9158E+00  0.3763E+01
    -10.625  0.2019E+01  0.3777E+01
    -10.619  0.2136E+01  0.3791E+01
    -10.612  0.1086E+01  0.3798E+01
    -10.605  0.2628E+00  0.3800E+01
    -10.599  0.5991E-01  0.3800E+01
    -10.592  0.2433E+00  0.3802E+01
    -10.585  0.8179E+00  0.3807E+01
    -10.579  0.1208E+01  0.3815E+01
    -10.572  0.7818E+00  0.3821E+01
    -10.565  0.2209E+00  0.3822E+01
    -10.559  0.2711E-01  0.3822E+01
    -10.552  0.1432E-02  0.3822E+01
    -10.545  0.3229E-04  0.3822E+01
    -10.539  0.3085E-06  0.3822E+01
    -10.532  0.1241E-08  0.3822E+01
    -10.525  0.2090E-11  0.3822E+01
    -10.519  0.1480E-14  0.3822E+01
    -10.512  0.0000E+00  0.3822E+01
    -10.505  0.0000E+00  0.3822E+01
    -10.498  0.0000E+00  0.3822E+01
    -10.492  0.0000E+00  0.3822E+01
    -10.485  0.0000E+00  0.3822E+01
    -10.478  0.0000E+00  0.3822E+01
    -10.472  0.0000E+00  0.3822E+01
    -10.465  0.0000E+00  0.3822E+01
    -10.458  0.0000E+00  0.3822E+01
    -10.452  0.0000E+00  0.3822E+01
    -10.445  0.0000E+00  0.3822E+01
    -10.438  0.0000E+00  0.3822E+01
    -10.432  0.4439E-14  0.3822E+01
    -10.425  0.5624E-11  0.3822E+01
    -10.418  0.2939E-08  0.3822E+01
    -10.412  0.6435E-06  0.3822E+01
    -10.405  0.5936E-04  0.3822E+01
    -10.398  0.2323E-02  0.3822E+01
    -10.392  0.3884E-01  0.3822E+01
    -10.385  0.2801E+00  0.3824E+01
    -10.378  0.8810E+00  0.3830E+01
    -10.372  0.1255E+01  0.3839E+01
    -10.365  0.1062E+01  0.3846E+01
    -10.358  0.1148E+01  0.3853E+01
    -10.352  0.1199E+01  0.3861E+01
    -10.345  0.6343E+00  0.3866E+01
    -10.338  0.1486E+00  0.3867E+01
    -10.332  0.1510E-01  0.3867E+01
    -10.325  0.6599E-03  0.3867E+01
    -10.318  0.1229E-04  0.3867E+01
    -10.312  0.1116E-05  0.3867E+01
    -10.305  0.8673E-04  0.3867E+01
    -10.298  0.3133E-02  0.3867E+01
    -10.292  0.4841E-01  0.3867E+01
    -10.285  0.3228E+00  0.3869E+01
    -10.278  0.9359E+00  0.3875E+01
    -10.272  0.1186E+01  0.3883E+01
    -10.265  0.6585E+00  0.3888E+01
    -10.258  0.1595E+00  0.3889E+01
    -10.252  0.1675E-01  0.3889E+01
    -10.245  0.9172E-03  0.3889E+01
    -10.238  0.5107E-02  0.3889E+01
    -10.232  0.6893E-01  0.3889E+01
    -10.225  0.4030E+00  0.3892E+01
    -10.218  0.1026E+01  0.3899E+01
    -10.212  0.1142E+01  0.3907E+01
    -10.205  0.5569E+00  0.3910E+01
    -10.198  0.1196E+00  0.3911E+01
    -10.192  0.3551E-01  0.3911E+01
    -10.185  0.2076E+00  0.3913E+01
    -10.178  0.7566E+00  0.3918E+01
    -10.172  0.1207E+01  0.3926E+01
    -10.165  0.8427E+00  0.3931E+01
    -10.158  0.2572E+00  0.3933E+01
    -10.152  0.3409E-01  0.3933E+01
    -10.145  0.1948E-02  0.3933E+01
    -10.138  0.4754E-04  0.3933E+01
    -10.132  0.4918E-06  0.3933E+01
    -10.125  0.2143E-08  0.3933E+01
    -10.118  0.3914E-11  0.3933E+01
    -10.112  0.2960E-14  0.3933E+01
    -10.105  0.0000E+00  0.3933E+01
    -10.098  0.0000E+00  0.3933E+01
    -10.092  0.0000E+00  0.3933E+01
    -10.085  0.0000E+00  0.3933E+01
    -10.078  0.0000E+00  0.3933E+01
    -10.072  0.0000E+00  0.3933E+01
    -10.065  0.0000E+00  0.3933E+01
    -10.058  0.0000E+00  0.3933E+01
    -10.052  0.0000E+00  0.3933E+01
    -10.045  0.0000E+00  0.3933E+01
    -10.038  0.1850E-15  0.3933E+01
    -10.032  0.3420E-12  0.3933E+01
    -10.025  0.2549E-09  0.3933E+01
    -10.018  0.7952E-07  0.3933E+01
    -10.012  0.1043E-04  0.3933E+01
    -10.005  0.5780E-03  0.3933E+01
     -9.998  0.1365E-01  0.3933E+01
     -9.992  0.1385E+00  0.3934E+01
     -9.985  0.6090E+00  0.3938E+01
     -9.978  0.1168E+01  0.3946E+01
     -9.972  0.9807E+00  0.3953E+01
     -9.965  0.3601E+00  0.3955E+01
     -9.958  0.5753E-01  0.3956E+01
     -9.952  0.4069E-02  0.3956E+01
     -9.945  0.3662E-02  0.3956E+01
     -9.938  0.5299E-01  0.3956E+01
     -9.932  0.3419E+00  0.3958E+01
     -9.925  0.9599E+00  0.3965E+01
     -9.918  0.1190E+01  0.3973E+01
     -9.912  0.7592E+00  0.3978E+01
     -9.905  0.7270E+00  0.3982E+01
     -9.898  0.1172E+01  0.3990E+01
     -9.892  0.1071E+01  0.3997E+01
     -9.885  0.8891E+00  0.4003E+01
     -9.878  0.1917E+01  0.4016E+01
     -9.872  0.3451E+01  0.4039E+01
     -9.865  0.3756E+01  0.4064E+01
     -9.858  0.2573E+01  0.4081E+01
     -9.852  0.1190E+01  0.4089E+01
     -9.845  0.1022E+01  0.4096E+01
     -9.838  0.1588E+01  0.4107E+01
     -9.832  0.1800E+01  0.4119E+01
     -9.825  0.1407E+01  0.4128E+01
     -9.818  0.6601E+00  0.4132E+01
     -9.812  0.4087E+00  0.4135E+01
     -9.805  0.1319E+01  0.4144E+01
     -9.798  0.2923E+01  0.4164E+01
     -9.792  0.3195E+01  0.4185E+01
     -9.785  0.1930E+01  0.4198E+01
     -9.778  0.1205E+01  0.4206E+01
     -9.772  0.1268E+01  0.4214E+01
     -9.765  0.8846E+00  0.4220E+01
     -9.758  0.2992E+00  0.4222E+01
     -9.752  0.2039E+00  0.4223E+01
     -9.745  0.6726E+00  0.4228E+01
     -9.738  0.1190E+01  0.4236E+01
     -9.732  0.9250E+00  0.4242E+01
     -9.725  0.3144E+00  0.4244E+01
     -9.718  0.4905E-01  0.4244E+01
     -9.712  0.4514E-01  0.4245E+01
     -9.705  0.2955E+00  0.4247E+01
     -9.698  0.8994E+00  0.4253E+01
     -9.692  0.1197E+01  0.4261E+01
     -9.685  0.7051E+00  0.4265E+01
     -9.678  0.2686E+00  0.4267E+01
     -9.672  0.4971E+00  0.4271E+01
     -9.665  0.1092E+01  0.4278E+01
     -9.658  0.1090E+01  0.4285E+01
     -9.652  0.4766E+00  0.4288E+01
     -9.645  0.9087E-01  0.4289E+01
     -9.638  0.9514E-02  0.4289E+01
     -9.632  0.3542E-01  0.4289E+01
     -9.625  0.2624E+00  0.4291E+01
     -9.618  0.8530E+00  0.4297E+01
     -9.612  0.1242E+01  0.4305E+01
     -9.605  0.1016E+01  0.4312E+01
     -9.598  0.1062E+01  0.4319E+01
     -9.592  0.1242E+01  0.4327E+01
     -9.585  0.8831E+00  0.4333E+01
     -9.578  0.8811E+00  0.4339E+01
     -9.572  0.1634E+01  0.4350E+01
     -9.565  0.2055E+01  0.4363E+01
     -9.558  0.1479E+01  0.4373E+01
     -9.552  0.5679E+00  0.4377E+01
     -9.545  0.1055E+00  0.4378E+01
     -9.538  0.8860E-02  0.4378E+01
     -9.532  0.3247E-03  0.4378E+01
     -9.525  0.5093E-05  0.4378E+01
     -9.518  0.3400E-07  0.4378E+01
     -9.512  0.5997E-07  0.4378E+01
     -9.505  0.8232E-05  0.4378E+01
     -9.498  0.4797E-03  0.4378E+01