    2    2    1    1
  0.3943865E+02  0.2464138E-09  0.2464138E-09  0.1500000E-08  0.5000000E-15
   1.0000000000000000E-004
  CAR 
 C                                       
      8     90     16

  0.0000000E+00  0.0000000E+00  0.0000000E+00  0.1111111E-01
    1      -21.779949   1.000000
    2       -9.875145   1.000000
    3       -5.269801   1.000000
    4       -5.269744   1.000000
    5        1.004888   0.000000
    6        1.903885   0.000000
    7        2.421926   0.000000
    8        4.293691   0.000000
    9        5.097745   0.000000
   10        6.119154   0.000000
   11        6.119219   0.000000
   12        8.219730   0.000000
   13        9.237533   0.000000
   14        9.329263   0.000000
   15       10.298853   0.000000
   16       13.545235   0.000000

  0.1724138E-01  0.0000000E+00  0.0000000E+00  0.1111111E-01
    1      -21.772911   1.000000
    2       -9.866688   1.000000
    3       -5.299611   1.000000
    4       -5.285086   1.000000
    5        1.014447   0.000000
    6        1.913536   0.000000
    7        2.431653   0.000000
    8        4.303284   0.000000
    9        5.107080   0.000000
   10        6.125364   0.000000
   11        6.150942   0.000000
   12        8.229063   0.000000
   13        9.214286   0.000000
   14        9.338959   0.000000
   15       10.311423   0.000000
   16       13.553924   0.000000

  0.3448276E-01  0.0000000E+00  0.0000000E+00  0.1111111E-01
    1      -21.751796   1.000000
    2       -9.841462   1.000000
    3       -5.387332   1.000000
    4       -5.331608   1.000000
    5        1.043117   0.000000
    6        1.942455   0.000000
    7        2.460833   0.000000
    8        4.332013   0.000000
    9        5.135096   0.000000
   10        6.139729   0.000000
   11        6.243350   0.000000
   12        8.256952   0.000000
   13        9.137579   0.000000
   14        9.367997   0.000000
   15       10.349185   0.000000
   16       13.579755   0.000000

  0.5172414E-01  0.0000000E+00  0.0000000E+00  0.1111111E-01
    1      -21.716617   1.000000
    2       -9.799449   1.000000
    3       -5.530273   1.000000
    4       -5.406578   1.000000
    5        1.090893   0.000000
    6        1.990646   0.000000
    7        2.509465   0.000000
    8        4.379883   0.000000
    9        5.181760   0.000000
   10        6.155805   0.000000
   11        6.394673   0.000000
   12        8.303392   0.000000
   13        9.014480   0.000000
   14        9.416307   0.000000
   15       10.413757   0.000000
   16       13.622672   0.000000

  0.6896552E-01  0.0000000E+00  0.0000000E+00  0.1111111E-01
    1      -21.667383   1.000000
    2       -9.740281   1.000000
    3       -5.725054   1.000000
    4       -5.507704   1.000000
    5        1.157789   0.000000
    6        2.058186   0.000000
    7        2.577555   0.000000
    8        4.446999   0.000000
    9        5.247030   0.000000
   10        6.173995   0.000000
   11        6.604574   0.000000
   12        8.368528   0.000000
   13        8.845194   0.000000
   14        9.483809   0.000000
   15       10.506762   0.000000
   16       13.682949   0.000000

  0.8620690E-01  0.0000000E+00  0.0000000E+00  0.1111111E-01
    1      -21.604122   1.000000
    2       -9.664894   1.000000
    3       -5.966947   1.000000
    4       -5.632445   1.000000
    5        1.243817   0.000000
    6        2.144871   0.000000
    7        2.665110   0.000000
    8        4.533074   0.000000
    9        5.330802   0.000000
   10        6.191116   0.000000
   11        6.866422   0.000000
   12        8.451119   0.000000
   13        8.631173   0.000000
   14        9.570358   0.000000
   15       10.629693   0.000000
   16       13.759267   0.000000

  0.1034483E+00  0.0000000E+00  0.0000000E+00  0.1111111E-01
    1      -21.526863   1.000000
    2       -9.572853   1.000000
    3       -6.250784   1.000000
    4       -5.775557   1.000000
    5        1.348967   0.000000
    6        2.250787   0.000000
    7        2.772126   0.000000
    8        4.638220   0.000000
    9        5.432713   0.000000
   10        6.202188   0.000000
   11        7.177790   0.000000
   12        8.374049   0.000000
   13        8.556322   0.000000
   14        9.675790   0.000000
   15       10.783696   0.000000
   16       13.851866   0.000000

  0.1206897E+00  0.0000000E+00  0.0000000E+00  0.1111111E-01
    1      -21.435646   1.000000
    2       -9.464352   1.000000
    3       -6.570908   1.000000
    4       -5.934201   1.000000
    5        1.473213   0.000000
    6        2.375877   0.000000
    7        2.898596   0.000000
    8        4.762337   0.000000
    9        5.551895   0.000000
   10        6.205094   0.000000
   11        7.532132   0.000000
   12        8.084743   0.000000
   13        8.675672   0.000000
   14        9.799935   0.000000
   15       10.968794   0.000000
   16       13.960072   0.000000

  0.1379310E+00  0.0000000E+00  0.0000000E+00  0.1111111E-01
    1      -21.330511   1.000000
    2       -9.339420   1.000000
    3       -6.922989   1.000000
    4       -6.104311   1.000000
    5        1.616566   0.000000
    6        2.520124   0.000000
    7        3.044523   0.000000
    8        4.905364   0.000000
    9        5.686265   0.000000
   10        6.199251   0.000000
   11        7.760560   0.000000
   12        7.930274   0.000000
   13        8.814193   0.000000
   14        9.942682   0.000000
   15       11.181517   0.000000
   16       14.083393   0.000000

  0.1551724E+00  0.0000000E+00  0.0000000E+00  0.1111111E-01
    1      -21.211515   1.000000
    2       -9.198483   1.000000
    3       -7.302318   1.000000
    4       -6.282978   1.000000
    5        1.778977   0.000000
    6        2.683388   0.000000
    7        3.209887   0.000000
    8        5.066992   0.000000
    9        5.828445   0.000000
   10        6.190894   0.000000
   11        7.402739   0.000000
   12        8.363505   0.000000
   13        8.970898   0.000000
   14       10.103927   0.000000
   15       11.419663   0.000000
   16       14.220518   0.000000

  0.1724138E+00  0.0000000E+00  0.0000000E+00  0.1111111E-01
    1      -21.078708   1.000000
    2       -9.041422   1.000000
    3       -7.702623   1.000000
    4       -6.466453   1.000000
    5        1.960471   0.000000
    6        2.865642   0.000000
    7        3.394695   0.000000
    8        5.246885   0.000000
    9        5.949894   0.000000
   10        6.212744   0.000000
   11        7.020569   0.000000
   12        8.833281   0.000000
   13        9.145722   0.000000
   14       10.283664   0.000000
   15       11.680162   0.000000
   16       14.370640   0.000000

  0.1896552E+00  0.0000000E+00  0.0000000E+00  0.1111111E-01
    1      -20.932171   1.000000
    2       -8.868483   1.000000
    3       -8.120797   1.000000
    4       -6.652599   1.000000
    5        2.160981   0.000000
    6        3.066689   0.000000
    7        3.598915   0.000000
    8        5.443605   0.000000
    9        5.988901   0.000000
   10        6.326917   0.000000
   11        6.617980   0.000000
   12        9.328077   0.000000
   13        9.338459   0.000000
   14       10.481820   0.000000
   15       11.956665   0.000000
   16       14.531879   0.000000

  0.2068966E+00  0.0000000E+00  0.0000000E+00  0.1111111E-01
    1      -20.771989   1.000000
    2       -8.680143   1.000000
    3       -8.552640   1.000000
    4       -6.838806   1.000000
    5        2.380443   0.000000
    6        3.286154   0.000000
    7        3.822502   0.000000
    8        5.649152   0.000000
    9        5.960944   0.000000
   10        6.203740   0.000000
   11        6.517426   0.000000
   12        9.548620   0.000000
   13        9.849651   0.000000
   14       10.698338   0.000000
   15       12.243165   0.000000
   16       14.701084   0.000000

  0.2241379E+00  0.0000000E+00  0.0000000E+00  0.1111111E-01
    1      -20.598229   1.000000
    2       -8.994421   1.000000
    3       -8.476716   1.000000
    4       -7.021723   1.000000
    5        2.618883   0.000000
    6        3.523273   0.000000
    7        4.065437   0.000000
    8        5.676455   0.000000
    9        5.911146   0.000000
   10        5.971516   0.000000
   11        6.744461   0.000000
   12        9.776062   0.000000
   13       10.392561   0.000000
   14       10.933280   0.000000
   15       12.537903   0.000000
   16       14.874481   0.000000

  0.2413793E+00  0.0000000E+00  0.0000000E+00  0.1111111E-01
    1      -20.411026   1.000000
    2       -9.444438   1.000000
    3       -8.258572   1.000000
    4       -7.200608   1.000000
    5        2.876162   0.000000
    6        3.775834   0.000000
    7        4.327589   0.000000
    8        5.265526   0.000000
    9        5.850918   0.000000
   10        6.186079   0.000000
   11        6.996205   0.000000
   12       10.020356   0.000000
   13       10.952813   0.000000
   14       11.186464   0.000000
   15       12.824901   0.000000
   16       15.045371   0.000000

  0.2586207E+00  0.0000000E+00  0.0000000E+00  0.1111111E-01
    1      -20.210489   1.000000
    2       -9.899397   1.000000
    3       -8.026789   1.000000
    4       -7.373449   1.000000
    5        3.152202   0.000000
    6        4.033047   0.000000
    7        4.608733   0.000000
    8        4.822202   0.000000
    9        5.785529   0.000000
   10        6.455120   0.000000
   11        7.269346   0.000000
   12       10.280569   0.000000
   13       11.457847   0.000000
   14       11.527584   0.000000
   15       13.098614   0.000000
   16       15.201837   0.000000

  0.2758621E+00  0.0000000E+00  0.0000000E+00  0.1111111E-01
    1      -19.996767   1.000000
    2      -10.356793   1.000000
    3       -7.780977   1.000000
    4       -7.538658   1.000000
    5        3.446845   0.000000
    6        4.155436   0.000000
    7        4.521655   0.000000
    8        4.908198   0.000000
    9        5.719139   0.000000
   10        6.746941   0.000000
   11        7.562625   0.000000
   12       10.556702   0.000000
   13       11.747211   0.000000
   14       12.115547   0.000000
   15       13.343971   0.000000
   16       15.326013   0.000000

  0.2931034E+00  0.0000000E+00  0.0000000E+00  0.1111111E-01
    1      -19.770025   1.000000
    2      -10.815341   1.000000
    3       -7.695426   1.000000
    4       -7.522394   1.000000
    5        3.759908   0.000000
    6        3.785268   0.000000
    7        4.725980   0.000000
    8        5.222974   0.000000
    9        5.658126   0.000000
   10        7.058423   0.000000
   11        7.875438   0.000000
   12       10.847502   0.000000
   13       12.054328   0.000000
   14       12.709810   0.000000
   15       13.535007   0.000000
   16       15.384501   0.000000

  0.3103448E+00  0.0000000E+00  0.0000000E+00  0.1111111E-01
    1      -19.530448   1.000000
    2      -11.273067   1.000000
    3       -7.842510   1.000000
    4       -7.251432   1.000000
    5        3.317715   0.000000
    6        4.090979   0.000000
    7        5.044484   0.000000
    8        5.503314   0.000000
    9        5.652813   0.000000
   10        7.388806   0.000000
   11        8.207479   0.000000
   12       11.151799   0.000000
   13       12.378954   0.000000
   14       13.309460   0.000000
   15       13.644322   0.000000
   16       15.331601   0.000000

  0.3275862E+00  0.0000000E+00  0.0000000E+00  0.1111111E-01
    1      -19.278330   1.000000
    2      -11.727964   1.000000
    3       -7.979334   1.000000
    4       -6.970851   1.000000
    5        2.840624   0.000000
    6        4.438971   0.000000
    7        5.392069   0.000000
    8        5.505807   0.000000
    9        5.949494   0.000000
   10        7.737281   0.000000
   11        8.558406   0.000000
   12       11.466790   0.000000
   13       12.719900   0.000000
   14       13.637167   0.000000
   15       13.904907   0.000000
   16       15.133525   0.000000

  0.3448276E+00  0.0000000E+00  0.0000000E+00  0.1111111E-01
    1      -19.013958   1.000000
    2      -12.178923   1.000000
    3       -8.104620   1.000000
    4       -6.681435   1.000000
    5        2.367351   0.000000
    6        4.800411   0.000000
    7        5.459779   0.000000
    8        5.761160   0.000000
    9        6.322227   0.000000
   10        8.103669   0.000000
   11        8.928040   0.000000
   12       11.789290   0.000000
   13       13.072514   0.000000
   14       13.486437   0.000000
   15       14.492213   0.000000
   16       14.804324   0.000000

  0.3620690E+00  0.0000000E+00  0.0000000E+00  0.1111111E-01
    1      -18.737742   1.000000
    2      -12.624435   1.000000
    3       -8.218548   1.000000
    4       -6.385629   1.000000
    5        1.901341   0.000000
    6        5.150584   0.000000
    7        5.443455   0.000000
    8        6.149698   0.000000
    9        6.718522   0.000000
   10        8.487375   0.000000
   11        9.316179   0.000000
   12       12.111512   0.000000
   13       13.151066   0.000000
   14       13.476587   0.000000
   15       14.387082   0.000000
   16       15.061624   0.000000

  0.3793103E+00  0.0000000E+00  0.0000000E+00  0.1111111E-01
    1      -18.450235   1.000000
    2      -13.063135   1.000000
    3       -8.320028   1.000000
    4       -6.086760   1.000000
    5        1.448346   0.000000
    6        5.289947   0.000000
    7        5.660665   0.000000
    8        6.556872   0.000000
    9        7.135198   0.000000
   10        8.887832   0.000000
   11        9.722519   0.000000
   12       12.414069   0.000000
   13       12.739639   0.000000
   14       13.856651   0.000000
   15       13.932859   0.000000
   16       14.885059   0.000000

  0.3965517E+00  0.0000000E+00  0.0000000E+00  0.1111111E-01
    1      -18.152301   1.000000
    2      -13.493340   1.000000
    3       -8.408720   1.000000
    4       -5.788944   1.000000
    5        1.014481   0.000000
    6        5.269483   0.000000
    7        6.060763   0.000000
    8        6.982134   0.000000
    9        7.571540   0.000000
   10        9.304232   0.000000
   11       10.146651   0.000000
   12       12.245666   0.000000
   13       12.621528   0.000000
   14       13.534335   0.000000
   15       14.222044   0.000000
   16       14.280875   0.000000

  0.4137931E+00  0.0000000E+00  0.0000000E+00  0.1111111E-01
    1      -17.845222   1.000000
    2      -13.913295   1.000000
    3       -8.484584   1.000000
    4       -5.498634   1.000000
    5        0.606834   0.000000
    6        5.237882   0.000000
    7        6.496379   0.000000
    8        7.424883   0.000000
    9        8.027280   0.000000
   10        9.735058   0.000000
   11       10.587939   0.000000
   12       11.711527   0.000000
   13       12.490687   0.000000
   14       13.432930   0.000000
   15       13.599263   0.000000
   16       14.681528   0.000000

  0.4310345E+00  0.0000000E+00  0.0000000E+00  0.1111111E-01
    1      -17.531456   1.000000
    2      -14.320156   1.000000
    3       -8.546837   1.000000
    4       -5.224419   1.000000
    5        0.236205   0.000000
    6        5.208420   0.000000
    7        6.953041   0.000000
    8        7.884691   0.000000
    9        8.502191   0.000000
   10       10.177450   0.000000
   11       11.032754   0.000000
   12       11.172446   0.000000
   13       12.053216   0.000000
   14       12.967912   0.000000
   15       13.551364   0.000000
   16       14.569816   0.000000

  0.4482759E+00  0.0000000E+00  0.0000000E+00  0.1111111E-01
    1      -17.215782   1.000000
    2      -14.708602   1.000000
    3       -8.595561   1.000000
    4       -4.980188   1.000000
    5       -0.084472   0.000000
    6        5.184696   0.000000
    7        7.427892   0.000000
    8        8.360275   0.000000
    9        8.996056   0.000000
   10       10.595825   0.000000
   11       10.618683   0.000000
   12       11.526526   0.000000
   13       11.549604   0.000000
   14       12.349847   0.000000
   15       13.484927   0.000000
   16       14.416640   0.000000

  0.4655172E+00  0.0000000E+00  0.0000000E+00  0.1111111E-01
    1      -16.909913   1.000000
    2      -15.066597   1.000000
    3       -8.630453   1.000000
    4       -4.782507   1.000000
    5       -0.336986   0.000000
    6        5.167440   0.000000
    7        7.919441   0.000000
    8        8.850203   0.000000
    9        9.507941   0.000000
   10       10.043069   0.000000
   11       10.851949   0.000000
   12       11.246651   0.000000
   13       11.745350   0.000000
   14       12.018578   0.000000
   15       13.131680   0.000000
   16       14.105688   0.000000

  0.4827586E+00  0.0000000E+00  0.0000000E+00  0.1111111E-01
    1      -16.648127   1.000000
    2      -15.359645   1.000000
    3       -8.651430   1.000000
    4       -4.651572   1.000000
    5       -0.501456   0.000000
    6        5.157357   0.000000
    7        8.425267   0.000000
    8        9.349777   0.000000
    9        9.494685   0.000000
   10       10.043073   0.000000
   11       10.411839   0.000000
   12       11.160525   0.000000
   13       11.614802   0.000000
   14       12.522822   0.000000
   15       12.692598   0.000000
   16       13.572079   0.000000

  0.5000000E+00  0.0000000E+00  0.0000000E+00  0.1111111E-01
    1      -16.528751   1.000000
    2      -15.489496   1.000000
    3       -8.658399   1.000000
    4       -4.606032   1.000000
    5       -0.558891   0.000000
    6        5.153647   0.000000
    7        8.878228   0.000000
    8        9.029407   0.000000
    9        9.764233   0.000000
   10        9.994186   0.000000
   11       10.580460   0.000000
   12       10.604211   0.000000
   13       11.913797   0.000000
   14       12.387921   0.000000
   15       13.008243   0.000000
   16       13.076730   0.000000

  0.5000000E+00  0.0000000E+00  0.0000000E+00  0.1111111E-01
    1      -16.528751   1.000000
    2      -15.489496   1.000000
    3       -8.658399   1.000000
    4       -4.606032   1.000000
    5       -0.558891   0.000000
    6        5.153647   0.000000
    7        8.878228   0.000000
    8        9.029407   0.000000
    9        9.764233   0.000000
   10        9.994186   0.000000
   11       10.580460   0.000000
   12       10.604211   0.000000
   13       11.913797   0.000000
   14       12.387921   0.000000
   15       13.008243   0.000000
   16       13.076730   0.000000

  0.4942528E+00  0.1149414E-01  0.0000000E+00  0.1111111E-01
    1      -16.526738   1.000000
    2      -15.487500   1.000000
    3       -8.669024   1.000000
    4       -4.603171   1.000000
    5       -0.559542   0.000000
    6        5.168039   0.000000
    7        8.881003   0.000000
    8        9.032354   0.000000
    9        9.764254   0.000000
   10        9.997411   0.000000
   11       10.583593   0.000000
   12       10.607389   0.000000
   13       11.912508   0.000000
   14       12.391140   0.000000
   15       13.010620   0.000000
   16       13.079566   0.000000

  0.4885055E+00  0.2298828E-01  0.0000000E+00  0.1111111E-01
    1      -16.520707   1.000000
    2      -15.481579   1.000000
    3       -8.700827   1.000000
    4       -4.595176   1.000000
    5       -0.561808   0.000000
    6        5.211039   0.000000
    7        8.889278   0.000000
    8        9.041120   0.000000
    9        9.764056   0.000000
   10       10.006966   0.000000
   11       10.592979   0.000000
   12       10.616902   0.000000
   13       11.908427   0.000000
   14       12.400653   0.000000
   15       13.017673   0.000000
   16       13.087984   0.000000

  0.4827583E+00  0.3448241E-01  0.0000000E+00  0.1111111E-01
    1      -16.510669   1.000000
    2      -15.471634   1.000000
    3       -8.753602   1.000000
    4       -4.580898   1.000000
    5       -0.565201   0.000000
    6        5.282175   0.000000
    7        8.903108   0.000000
    8        9.055832   0.000000
    9        9.763599   0.000000
   10       10.023089   0.000000
   11       10.608633   0.000000
   12       10.632786   0.000000
   13       11.901685   0.000000
   14       12.416742   0.000000
   15       13.029453   0.000000
   16       13.102122   0.000000

  0.4770110E+00  0.4597655E-01  0.0000000E+00  0.1111111E-01
    1      -16.496603   1.000000
    2      -15.457692   1.000000
    3       -8.826040   1.000000
    4       -4.560514   1.000000
    5       -0.569559   0.000000
    6        5.380902   0.000000
    7        8.922471   0.000000
    8        9.076477   0.000000
    9        9.762314   0.000000
   10       10.045720   0.000000
   11       10.630546   0.000000
   12       10.655037   0.000000
   13       11.891995   0.000000
   14       12.439332   0.000000
   15       13.045870   0.000000
   16       13.121955   0.000000

  0.4712638E+00  0.5747069E-01  0.0000000E+00  0.1111111E-01
    1      -16.478521   1.000000
    2      -15.439875   1.000000
    3       -8.917658   1.000000
    4       -4.534830   1.000000
    5       -0.576203   0.000000
    6        5.505733   0.000000
    7        8.947276   0.000000
    8        9.102910   0.000000
    9        9.759092   0.000000
   10       10.074739   0.000000
   11       10.658694   0.000000
   12       10.683615   0.000000
   13       11.878950   0.000000
   14       12.468289   0.000000
   15       13.066716   0.000000
   16       13.147304   0.000000

  0.4655166E+00  0.6896483E-01  0.0000000E+00  0.1111111E-01
    1      -16.456448   1.000000
    2      -15.418214   1.000000
    3       -9.026960   1.000000
    4       -4.503530   1.000000
    5       -0.585071   0.000000
    6        5.655224   0.000000
    7        8.977372   0.000000
    8        9.135118   0.000000
    9        9.752901   0.000000
   10       10.110191   0.000000
   11       10.693030   0.000000
   12       10.718515   0.000000
   13       11.862514   0.000000
   14       12.503663   0.000000
   15       13.091623   0.000000
   16       13.178120   0.000000

  0.4597693E+00  0.8045897E-01  0.0000000E+00  0.1111111E-01
    1      -16.430331   1.000000
    2      -15.392700   1.000000
    3       -9.152956   1.000000
    4       -4.466450   1.000000
    5       -0.595830   0.000000
    6        5.828719   0.000000
    7        9.012978   0.000000
    8        9.173169   0.000000
    9        9.742631   0.000000
   10       10.152102   0.000000
   11       10.733619   0.000000
   12       10.759757   0.000000
   13       11.843118   0.000000
   14       12.545484   0.000000
   15       13.120871   0.000000
   16       13.214473   0.000000

  0.4540221E+00  0.9195310E-01  0.0000000E+00  0.1111111E-01
    1      -16.400172   1.000000
    2      -15.363370   1.000000
    3       -9.293654   1.000000
    4       -4.423421   1.000000
    5       -0.608959   0.000000
    6        6.024567   0.000000
    7        9.053947   0.000000
    8        9.217040   0.000000
    9        9.726675   0.000000
   10       10.200507   0.000000
   11       10.780415   0.000000
   12       10.807335   0.000000
   13       11.821455   0.000000
   14       12.593795   0.000000
   15       13.154119   0.000000
   16       13.256301   0.000000

  0.4482748E+00  0.1034472E+00  0.0000000E+00  0.1111111E-01
    1      -16.365992   1.000000
    2      -15.330436   1.000000
    3       -9.448050   1.000000
    4       -4.374961   1.000000
    5       -0.624411   0.000000
    6        6.240691   0.000000
    7        9.100182   0.000000
    8        9.266560   0.000000
    9        9.703457   0.000000
   10       10.255307   0.000000
   11       10.833386   0.000000
   12       10.861199   0.000000
   13       11.798937   0.000000
   14       12.648477   0.000000
   15       13.190894   0.000000
   16       13.303342   0.000000

  0.4425276E+00  0.1149414E+00  0.0000000E+00  0.1111111E-01
    1      -16.327834   1.000000
    2      -15.293946   1.000000
    3       -9.615391   1.000000
    4       -4.320851   1.000000
    5       -0.644259   0.000000
    6        6.475257   0.000000
    7        9.151475   0.000000
    8        9.321736   0.000000
    9        9.670437   0.000000
   10       10.316544   0.000000
   11       10.892471   0.000000
   12       10.921351   0.000000
   13       11.777193   0.000000
   14       12.709580   0.000000
   15       13.230633   0.000000
   16       13.355545   0.000000

  0.4367803E+00  0.1264355E+00  0.0000000E+00  0.1111111E-01
    1      -16.285637   1.000000
    2      -15.253937   1.000000
    3       -9.793004   1.000000
    4       -4.260730   1.000000
    5       -0.667364   0.000000
    6        6.727012   0.000000
    7        9.207867   0.000000
    8        9.382626   0.000000
    9        9.627063   0.000000
   10       10.384290   0.000000
   11       10.957675   0.000000
   12       10.987804   0.000000
   13       11.759384   0.000000
   14       12.777190   0.000000
   15       13.273146   0.000000
   16       13.412912   0.000000

  0.4310331E+00  0.1379297E+00  0.0000000E+00  0.1111111E-01
    1      -16.239430   1.000000
    2      -15.210604   1.000000
    3       -9.979738   1.000000
    4       -4.195098   1.000000
    5       -0.694662   0.000000
    6        6.994198   0.000000
    7        9.269180   0.000000
    8        9.449076   0.000000
    9        9.571912   0.000000
   10       10.458439   0.000000
   11       11.028944   0.000000
   12       11.060515   0.000000
   13       11.748073   0.000000
   14       12.851181   0.000000
   15       13.317878   0.000000
   16       13.475175   0.000000

  0.4252859E+00  0.1494238E+00  0.0000000E+00  0.1111111E-01
    1      -16.189252   1.000000
    2      -15.164366   1.000000
    3      -10.174623   1.000000
    4       -4.124057   1.000000
    5       -0.726759   0.000000
    6        7.274122   0.000000
    7        9.335118   0.000000
    8        9.504699   0.000000
    9        9.520848   0.000000
   10       10.538980   0.000000
   11       11.106176   0.000000
   12       11.139406   0.000000
   13       11.745941   0.000000
   14       12.931541   0.000000
   15       13.363591   0.000000
   16       13.541868   0.000000

  0.4195386E+00  0.1609179E+00  0.0000000E+00  0.1111111E-01
    1      -16.135059   1.000000
    2      -15.115351   1.000000
    3      -10.375920   1.000000
    4       -4.047484   1.000000
    5       -0.765055   0.000000
    6        7.564640   0.000000
    7        9.405594   0.000000
    8        9.425645   0.000000
    9        9.597936   0.000000
   10       10.625936   0.000000
   11       11.189335   0.000000
   12       11.224474   0.000000
   13       11.755044   0.000000
   14       13.018297   0.000000
   15       13.409787   0.000000
   16       13.612823   0.000000

  0.4137914E+00  0.1724121E+00  0.0000000E+00  0.1111111E-01
    1      -16.076855   1.000000
    2      -15.063819   1.000000
    3      -10.582042   1.000000
    4       -3.965205   1.000000
    5       -0.808200   0.000000
    6        7.865222   0.000000
    7        9.337347   0.000000
    8        9.480451   0.000000
    9        9.680408   0.000000
   10       10.719337   0.000000
   11       11.278357   0.000000
   12       11.315717   0.000000
   13       11.776983   0.000000
   14       13.111485   0.000000
   15       13.455663   0.000000
   16       13.687897   0.000000

  0.4080441E+00  0.1839062E+00  0.0000000E+00  0.1111111E-01
    1      -16.014655   1.000000
    2      -15.010212   1.000000
    3      -10.791558   1.000000
    4       -3.877344   1.000000
    5       -0.857424   0.000000
    6        8.173332   0.000000
    7        9.241607   0.000000
    8        9.559354   0.000000
    9        9.768176   0.000000
   10       10.819158   0.000000
   11       11.373117   0.000000
   12       11.413081   0.000000
   13       11.812208   0.000000
   14       13.211075   0.000000
   15       13.500017   0.000000
   16       13.766598   0.000000

  0.4022969E+00  0.1954003E+00  0.0000000E+00  0.1111111E-01
    1      -15.948521   1.000000
    2      -14.955028   1.000000
    3      -11.003603   1.000000
    4       -3.784159   1.000000
    5       -0.913976   0.000000
    6        8.485136   0.000000
    7        9.140885   0.000000
    8        9.641854   0.000000
    9        9.861273   0.000000
   10       10.925336   0.000000
   11       11.473456   0.000000
   12       11.516521   0.000000
   13       11.860631   0.000000
   14       13.316992   0.000000
   15       13.541627   0.000000
   16       13.848415   0.000000

  0.3965497E+00  0.2068945E+00  0.0000000E+00  0.1111111E-01
    1      -15.878315   1.000000
    2      -14.899100   1.000000
    3      -11.216116   1.000000
    4       -3.685217   1.000000
    5       -0.977545   0.000000
    6        8.799363   0.000000
    7        9.038445   0.000000
    8        9.727891   0.000000
    9        9.959662   0.000000
   10       11.037975   0.000000
   11       11.579293   0.000000
   12       11.625921   0.000000
   13       11.921757   0.000000
   14       13.429359   0.000000
   15       13.579986   0.000000
   16       13.932354   0.000000

  0.3908024E+00  0.2183886E+00  0.0000000E+00  0.1111111E-01
    1      -15.804172   1.000000
    2      -14.843173   1.000000
    3      -11.427631   1.000000
    4       -3.580775   1.000000
    5       -1.049153   0.000000
    6        8.937043   0.000000
    7        9.110824   0.000000
    8        9.816688   0.000000
    9       10.064266   0.000000
   10       11.157023   0.000000
   11       11.690329   0.000000
   12       11.741324   0.000000
   13       11.994755   0.000000
   14       13.548116   0.000000
   15       13.613579   0.000000
   16       14.018069   0.000000

  0.3850552E+00  0.2298828E+00  0.0000000E+00  0.1111111E-01
    1      -15.726043   1.000000
    2      -14.788496   1.000000
    3      -11.636111   1.000000
    4       -3.470820   1.000000
    5       -1.129749   0.000000
    6        8.839102   0.000000
    7        9.414710   0.000000