 running on    2 total cores
 distrk:  each k-point on    2 cores,    1 groups
 distr:  one band on    1 cores,    2 groups
 using from now: INCAR     
 vasp.5.4.4.18Apr17-6-g9f103f2a35 (build May 21 2018 15:16:00) complex           
 POSCAR found type information on POSCAR  C 
 POSCAR found :  1 types and       2 ions
 scaLAPACK will be used
 LDA part: xc-table for Pade appr. of Perdew
 WARNING: stress and forces are not correct
 POSCAR, INCAR and KPOINTS ok, starting setup
 FFT: planning ...
 WAVECAR not read
 charge-density read from file: C                                       
 entering main loop
       N       E                     dE             d eps       ncg     rms          rms(c)
DAV:   1     0.243143547548E+02    0.24314E+02   -0.26140E+03  2936   0.291E+02
DAV:   2    -0.152524155266E+02   -0.39567E+02   -0.33510E+02  4008   0.809E+01
DAV:   3    -0.173208772399E+02   -0.20685E+01   -0.20612E+01  3656   0.197E+01
DAV:   4    -0.173364432012E+02   -0.15566E-01   -0.15563E-01  3728   0.215E+00
DAV:   5    -0.173365752809E+02   -0.13208E-03   -0.13208E-03  3672   0.161E-01
DAV:   6    -0.173365788151E+02   -0.35342E-05   -0.35344E-05  3992   0.211E-02
DAV:   7    -0.173365789467E+02   -0.13166E-06   -0.13159E-06  3552   0.269E-03
   1 F= -.17336579E+02 E0= -.17336454E+02  d E =-.250723E-03
