 vasp.5.4.4.18Apr17-6-g9f103f2a35 (build May 21 2018 15:16:00) complex           
 executed on GUN_wannier90_optcel date 2019.03.23  14:17:35
 running on    2 total cores
 distrk:  each k-point on    2 cores,    1 groups
 distr:  one band on NCORES_PER_BAND=   1 cores,    2 groups


--------------------------------------------------------------------------------------------------------


 INCAR:
 POTCAR:    PAW_PBE C 08Apr2002                   
 POTCAR:    PAW_PBE C 08Apr2002                   
  local pseudopotential read in
  partial core-charges read in
  partial kinetic energy density read in
  atomic valenz-charges read in
  non local Contribution for L=           0  read in
    real space projection operators read in
  non local Contribution for L=           0  read in
    real space projection operators read in
  non local Contribution for L=           1  read in
    real space projection operators read in
  non local Contribution for L=           1  read in
    real space projection operators read in
    PAW grid and wavefunctions read in

   number of l-projection  operators is LMAX  =           4
   number of lm-projection operators is LMMAX =           8

  PAW_PBE C 08Apr2002                   :
 energy of atom  1       EATOM= -147.1560
 kinetic energy error for atom=    0.0288 (will be added to EATOM!!)


 POSCAR: c4                                      
  positions in direct lattice
  velocities in cartesian coordinates
 exchange correlation table for  LEXCH =        8
   RHO(1)=    0.500       N(1)  =     2000
   RHO(2)=  100.500       N(2)  =     4000



--------------------------------------------------------------------------------------------------------


 ion  position               nearest neighbor table
   1  0.000  0.000  0.145-   2 1.42   2 1.42   2 1.42
   2  0.667  0.333  0.145-   1 1.42   1 1.42   1 1.42

  LATTYP: Found a hexagonal cell.
 ALAT       =     2.4641382787
 C/A-ratio  =     6.0873207198
  
  Lattice vectors:
  
 A1 = (   2.4641382786,   0.0000000000,   0.0000000000)
 A2 = (  -1.2320691393,   2.1340063478,   0.0000000000)
 A3 = (   0.0000000000,   0.0000000000,  15.0000000000)


Analysis of symmetry for initial positions (statically):
=====================================================================
 Subroutine PRICEL returns:
 Original cell was already a primitive cell.
 

 Routine SETGRP: Setting up the symmetry group for a 
 hexagonal supercell.


 Subroutine GETGRP returns: Found 24 space group operations
 (whereof  6 operations were pure point group operations)
 out of a pool of 24 trial point group operations.


The static configuration has the point symmetry C_3v.
 The point group associated with its full space group is D_6h.


Analysis of symmetry for dynamics (positions and initial velocities):
=====================================================================
 Subroutine PRICEL returns:
 Original cell was already a primitive cell.
 

 Routine SETGRP: Setting up the symmetry group for a 
 hexagonal supercell.


 Subroutine GETGRP returns: Found 24 space group operations
 (whereof  6 operations were pure point group operations)
 out of a pool of 24 trial point group operations.


The dynamic configuration has the point symmetry C_3v.
 The point group associated with its full space group is D_6h.


 Subroutine INISYM returns: Found 24 space group operations
 (whereof  6 operations are pure point group operations),
 and found     1 'primitive' translations



 KPOINTS: K-point                                 
  interpolating k-points between supplied coordinates
  k-points in reciprocal lattice
Space group operators:
 irot       det(A)        alpha          n_x          n_y          n_z        tau_x        tau_y        tau_z
    1     1.000000     0.000000     1.000000     0.000000     0.000000     0.000000     0.000000     0.000000
    2     1.000000   120.000000     0.000000     0.000000    -1.000000     0.000000     0.000000     0.000000
    3     1.000000   120.000000     0.000000     0.000000     1.000000     0.000000     0.000000     0.000000
    4    -1.000000   180.000000     1.000000    -0.000000     0.000000     0.000000     0.000000     0.000000
    5    -1.000000   180.000000     0.500000    -0.866025     0.000000     0.000000     0.000000     0.000000
    6    -1.000000   180.000000    -0.500000    -0.866025     0.000000     0.000000     0.000000     0.000000
    7    -1.000000     0.000000     1.000000     0.000000     0.000000     0.666667     0.333333     0.289501
    8     1.000000    60.000000     0.000000     0.000000    -1.000000     0.666667     0.333333     0.000000
    9    -1.000000    60.000000     0.000000     0.000000    -1.000000     0.000001     0.000000     0.289501
   10    -1.000000   120.000000     0.000000     0.000000    -1.000000     0.666667     0.333333     0.289501
   11     1.000000   180.000000     0.000000     0.000000     1.000000     0.666667     0.333333     0.000000
   12    -1.000000   180.000000     0.000000     0.000000     1.000000     0.000000     0.000000     0.289501
   13    -1.000000   120.000000     0.000000     0.000000     1.000000     0.666667     0.333333     0.289501
   14     1.000000    60.000000     0.000000     0.000000     1.000000     0.666667     0.333333     0.000000
   15    -1.000000    60.000000     0.000000     0.000000     1.000000     0.000000     0.000000     0.289501
   16     1.000000   180.000000     1.000000    -0.000000     0.000000     0.666667     0.333333     0.289501
   17     1.000000   180.000000     0.866025    -0.500000     0.000000     0.000000     0.000000     0.289501
   18    -1.000000   180.000000     0.866025    -0.500000     0.000000     0.666667     0.333333     0.000000
   19     1.000000   180.000000     0.500000    -0.866025     0.000000     0.666667     0.333333     0.289501
   20     1.000000   180.000000     0.000000     1.000000     0.000000     0.000001     0.000000     0.289501
   21    -1.000000   180.000000     0.000000     1.000000     0.000000     0.666667     0.333333     0.000000
   22     1.000000   180.000000    -0.500000    -0.866025     0.000000     0.666667     0.333333     0.289501
   23     1.000000   180.000000     0.866025     0.500000     0.000000     0.000000     0.000000     0.289501
   24    -1.000000   180.000000     0.866025     0.500000     0.000000     0.666667     0.333333     0.000000


--------------------------------------------------------------------------------------------------------




 Dimension of arrays:
   k-points           NKPTS =     90   k-points in BZ     NKDIM =     90   number of bands    NBANDS=     16
   number of dos      NEDOS =   3000   number of ions     NIONS =      2
   non local maximal  LDIM  =      4   non local SUM 2l+1 LMDIM =      8
   total plane-waves  NPLWV =  25088
   max r-space proj   IRMAX =      1   max aug-charges    IRDMAX=   3952
   dimension x,y,z NGX =    16 NGY =   16 NGZ =   98
   dimension x,y,z NGXF=    32 NGYF=   32 NGZF=  196
   support grid    NGXF=    32 NGYF=   32 NGZF=  196
   ions per type =               2
   NGX,Y,Z   is equivalent  to a cutoff of  10.79, 10.79, 10.86 a.u.
   NGXF,Y,Z  is equivalent  to a cutoff of  21.59, 21.59, 21.72 a.u.

 SYSTEM =  C                                       
 POSCAR =  c4                                      

 Startparameter for this run:
   NWRITE =      1    write-flag & timer
   PREC   = a         normal or accurate (medium, high low for compatibility)
   ISTART =      0    job   : 0-new  1-cont  2-samecut
   ICHARG =     11    charge: 1-file 2-atom 10-const
   ISPIN  =      1    spin polarized calculation?
   LNONCOLLINEAR =      F non collinear calculations
   LSORBIT =      F    spin-orbit coupling
   INIWAV =      1    electr: 0-lowe 1-rand  2-diag
   LASPH  =      F    aspherical Exc in radial PAW
   METAGGA=      F    non-selfconsistent MetaGGA calc.

 Electronic Relaxation 1
   ENCUT  =  400.0 eV  29.40 Ry    5.42 a.u.   4.02  4.02 24.46*2*pi/ulx,y,z
   ENINI  =  400.0     initial cutoff
   ENAUG  =  644.9 eV  augmentation charge cutoff
   NELM   =   2000;   NELMIN=  5; NELMDL= -5     # of ELM steps 
   EDIFF  = 0.1E-05   stopping-criterion for ELM
   LREAL  =      F    real-space projection
   NLSPLINE    = F    spline interpolate recip. space projectors
   LCOMPAT=      F    compatible to vasp.4.4
   GGA_COMPAT  = T    GGA compatible to vasp.4.4-vasp.4.6
   LMAXPAW     = -100 max onsite density
   LMAXMIX     =    2 max onsite mixed and CHGCAR
   VOSKOWN=      0    Vosko Wilk Nusair interpolation
   ROPT   =    0.00000
 Ionic relaxation
   EDIFFG = -.1E-01   stopping-criterion for IOM
   NSW    =      0    number of steps for IOM
   NBLOCK =      1;   KBLOCK =      1    inner block; outer block 
   IBRION =     -1    ionic relax: 0-MD 1-quasi-New 2-CG
   NFREE  =      0    steps in history (QN), initial steepest desc. (CG)
   ISIF   =      2    stress and relaxation
   IWAVPR =     10    prediction:  0-non 1-charg 2-wave 3-comb
   ISYM   =      2    0-nonsym 1-usesym 2-fastsym
   LCORR  =      T    Harris-Foulkes like correction to forces

   POTIM  = 0.5000    time-step for ionic-motion
   TEIN   =    0.0    initial temperature
   TEBEG  =    0.0;   TEEND  =   0.0 temperature during run
   SMASS  =  -3.00    Nose mass-parameter (am)
   estimated Nose-frequenzy (Omega)   =  0.10E-29 period in steps =****** mass=  -0.139E-27a.u.
   SCALEE = 1.0000    scale energy and forces
   NPACO  =    256;   APACO  = 16.0  distance and # of slots for P.C.
   PSTRESS=    0.0 pullay stress

  Mass of Ions in am
   POMASS =  12.01
  Ionic Valenz
   ZVAL   =   4.00
  Atomic Wigner-Seitz radii
   RWIGS  =  -1.00
  virtual crystal weights 
   VCA    =   1.00
   NELECT =       8.0000    total number of electrons
   NUPDOWN=      -1.0000    fix difference up-down

 DOS related values:
   EMIN   = -15.00;   EMAX   =  5.00  energy-range for DOS
   EFERMI =   0.00
   ISMEAR =     0;   SIGMA  =   0.01  broadening in eV -4-tet -1-fermi 0-gaus

 Electronic relaxation 2 (details)
   IALGO  =     38    algorithm
   LDIAG  =      T    sub-space diagonalisation (order eigenvalues)
   LSUBROT=      F    optimize rotation matrix (better conditioning)
   TURBO    =      0    0=normal 1=particle mesh
   IRESTART =      0    0=no restart 2=restart with 2 vectors
   NREBOOT  =      0    no. of reboots
   NMIN     =      0    reboot dimension
   EREF     =   0.00    reference energy to select bands
   IMIX   =      4    mixing-type and parameters
     AMIX     =   0.40;   BMIX     =  1.00
     AMIX_MAG =   1.60;   BMIX_MAG =  1.00
     AMIN     =   0.10
     WC   =   100.;   INIMIX=   1;  MIXPRE=   1;  MAXMIX= -45

 Intra band minimization:
   WEIMIN = 0.0000     energy-eigenvalue tresh-hold
   EBREAK =  0.16E-07  absolut break condition
   DEPER  =   0.30     relativ break condition  

   TIME   =   0.40     timestep for ELM

  volume/ion in A,a.u.               =      39.44       266.15
  Fermi-wavevector in a.u.,A,eV,Ry     =   0.763462  1.442734  7.930487  0.582874
  Thomas-Fermi vector in A             =   1.863149

 Write flags
   LWAVE        =      F    write WAVECAR
   LDOWNSAMPLE  =      F    k-point downsampling of WAVECAR
   LCHARG       =      F    write CHGCAR
   LVTOT        =      F    write LOCPOT, total local potential
   LVHAR        =      F    write LOCPOT, Hartree potential only
   LELF         =      F    write electronic localiz. function (ELF)
   LORBIT       =     11    0 simple, 1 ext, 2 COOP (PROOUT), +10 PAW based schemes


 Dipole corrections
   LMONO  =      F    monopole corrections only (constant potential shift)
   LDIPOL =      F    correct potential (dipole corrections)
   IDIPOL =      0    1-x, 2-y, 3-z, 4-all directions 
   EPSILON=  1.0000000 bulk dielectric constant

 Exchange correlation treatment:
   GGA     =    --    GGA type
   LEXCH   =     8    internal setting for exchange type
   VOSKOWN=      0    Vosko Wilk Nusair interpolation
   LHFCALC =     F    Hartree Fock is set to
   LHFONE  =     F    Hartree Fock one center treatment
   AEXX    =    0.0000 exact exchange contribution

 Linear response parameters
   LEPSILON=     F    determine dielectric tensor
   LRPA    =     F    only Hartree local field effects (RPA)
   LNABLA  =     F    use nabla operator in PAW spheres
   LVEL    =     F    velocity operator in full k-point grid
   LINTERFAST=   F  fast interpolation
   KINTER  =     0    interpolate to denser k-point grid
   CSHIFT  =0.1000    complex shift for real part using Kramers Kronig
   OMEGAMAX=  -1.0    maximum frequency
   DEG_THRESHOLD= 0.2000000E-02 threshold for treating states as degnerate
   RTIME   =   -0.100 relaxation time in fs
  (WPLASMAI=    0.000 imaginary part of plasma frequency in eV, 0.658/RTIME)
   DFIELD  = 0.0000000 0.0000000 0.0000000 field for delta impulse in time

 Orbital magnetization related:
   ORBITALMAG=     F  switch on orbital magnetization
   LCHIMAG   =     F  perturbation theory with respect to B field
   DQ        =  0.001000  dq finite difference perturbation B field
   LLRAUG    =     F  two centre corrections for induced B field



--------------------------------------------------------------------------------------------------------


 Static calculation
 charge density and potential remain constant during run
 non-spin polarized calculation
 Variant of blocked Davidson
 Davidson routine will perform the subspace rotation
 perform sub-space diagonalisation
    after iterative eigenvector-optimisation
 no mixing
 using additional bands           12
 reciprocal scheme for non local part
 use partial core corrections
 calculate Harris-corrections to forces   (improved forces if not selfconsistent)
 use gradient corrections 
 WARNING: stress and forces are not correct
  (second derivative of E(xc) not defined)
 use of overlap-Matrix (Vanderbilt PP)
 Gauss-broadening in eV      SIGMA  =   0.01


--------------------------------------------------------------------------------------------------------


  energy-cutoff  :      400.00
  volume of cell :       78.88
      direct lattice vectors                 reciprocal lattice vectors
     2.464138279  0.000000000  0.000000000     0.405821381  0.234301084 -0.000000000
    -1.232069139  2.134006348  0.000000000     0.000000000  0.468602167  0.000000000
     0.000000000  0.000000000 15.000000000     0.000000000 -0.000000000  0.066666667

  length of vectors
     2.464138279  2.464138279 15.000000000     0.468602167  0.468602167  0.066666667



 k-points in units of 2pi/SCALE and weight: K-point                                 
   0.00000000  0.00000000  0.00000000       0.011
   0.00699692  0.00403967  0.00000000       0.011
   0.01399384  0.00807935  0.00000000       0.011
   0.02099076  0.01211902  0.00000000       0.011
   0.02798768  0.01615870  0.00000000       0.011
   0.03498460  0.02019837  0.00000000       0.011
   0.04198152  0.02423804  0.00000000       0.011
   0.04897844  0.02827772  0.00000000       0.011
   0.05597536  0.03231739  0.00000000       0.011
   0.06297228  0.03635706  0.00000000       0.011
   0.06996920  0.04039674  0.00000000       0.011
   0.07696612  0.04443641  0.00000000       0.011
   0.08396304  0.04847609  0.00000000       0.011
   0.09095996  0.05251576  0.00000000       0.011
   0.09795689  0.05655543  0.00000000       0.011
   0.10495381  0.06059511  0.00000000       0.011
   0.11195073  0.06463478  0.00000000       0.011
   0.11894765  0.06867446  0.00000000       0.011
   0.12594457  0.07271413  0.00000000       0.011
   0.13294149  0.07675380  0.00000000       0.011
   0.13993841  0.08079348  0.00000000       0.011
   0.14693533  0.08483315  0.00000000       0.011
   0.15393225  0.08887282  0.00000000       0.011
   0.16092917  0.09291250  0.00000000       0.011
   0.16792609  0.09695217  0.00000000       0.011
   0.17492301  0.10099185  0.00000000       0.011
   0.18191993  0.10503152  0.00000000       0.011
   0.18891685  0.10907119  0.00000000       0.011
   0.19591377  0.11311087  0.00000000       0.011
   0.20291069  0.11715054  0.00000000       0.011
   0.20291069  0.11715054  0.00000000       0.011
   0.20057834  0.12119013  0.00000000       0.011
   0.19824598  0.12522973  0.00000000       0.011
   0.19591363  0.12926932  0.00000000       0.011
   0.19358128  0.13330891  0.00000000       0.011
   0.19124892  0.13734851  0.00000000       0.011
   0.18891657  0.14138810  0.00000000       0.011
   0.18658422  0.14542769  0.00000000       0.011
   0.18425186  0.14946729  0.00000000       0.011
   0.18191951  0.15350688  0.00000000       0.011
   0.17958716  0.15754647  0.00000000       0.011
   0.17725480  0.16158607  0.00000000       0.011
   0.17492245  0.16562566  0.00000000       0.011
   0.17259010  0.16966525  0.00000000       0.011
   0.17025774  0.17370484  0.00000000       0.011
   0.16792539  0.17774444  0.00000000       0.011
   0.16559304  0.18178403  0.00000000       0.011
   0.16326068  0.18582362  0.00000000       0.011
   0.16092833  0.18986322  0.00000000       0.011
   0.15859598  0.19390281  0.00000000       0.011
   0.15626362  0.19794240  0.00000000       0.011
   0.15393127  0.20198200  0.00000000       0.011
   0.15159892  0.20602159  0.00000000       0.011
   0.14926656  0.21006118  0.00000000       0.011
   0.14693421  0.21410078  0.00000000       0.011
   0.14460185  0.21814037  0.00000000       0.011
   0.14226950  0.22217996  0.00000000       0.011
   0.13993715  0.22621955  0.00000000       0.011
   0.13760479  0.23025915  0.00000000       0.011
   0.13527244  0.23429874  0.00000000       0.011
   0.13527244  0.23429874  0.00000000       0.011
   0.13060787  0.22621947  0.00000000       0.011
   0.12594331  0.21814021  0.00000000       0.011
   0.12127874  0.21006094  0.00000000       0.011
   0.11661417  0.20198167  0.00000000       0.011
   0.11194961  0.19390241  0.00000000       0.011
   0.10728504  0.18582314  0.00000000       0.011
   0.10262047  0.17774387  0.00000000       0.011
   0.09795591  0.16966461  0.00000000       0.011
   0.09329134  0.16158534  0.00000000       0.011
   0.08862677  0.15350607  0.00000000       0.011
   0.08396220  0.14542680  0.00000000       0.011
   0.07929764  0.13734754  0.00000000       0.011
   0.07463307  0.12926827  0.00000000       0.011
   0.06996850  0.12118900  0.00000000       0.011
   0.06530394  0.11310974  0.00000000       0.011
   0.06063937  0.10503047  0.00000000       0.011
   0.05597480  0.09695120  0.00000000       0.011
   0.05131024  0.08887194  0.00000000       0.011
   0.04664567  0.08079267  0.00000000       0.011
   0.04198110  0.07271340  0.00000000       0.011
   0.03731654  0.06463414  0.00000000       0.011
   0.03265197  0.05655487  0.00000000       0.011
   0.02798740  0.04847560  0.00000000       0.011
   0.02332283  0.04039633  0.00000000       0.011
   0.01865827  0.03231707  0.00000000       0.011
   0.01399370  0.02423780  0.00000000       0.011
   0.00932913  0.01615853  0.00000000       0.011
   0.00466457  0.00807927  0.00000000       0.011
   0.00000000  0.00000000  0.00000000       0.011

 k-points in reciprocal lattice and weights: K-point                                 
   0.00000000  0.00000000  0.00000000       0.011
   0.01724138  0.00000000  0.00000000       0.011
   0.03448276  0.00000000  0.00000000       0.011
   0.05172414  0.00000000  0.00000000       0.011
   0.06896552  0.00000000  0.00000000       0.011
   0.08620690  0.00000000  0.00000000       0.011
   0.10344828  0.00000000  0.00000000       0.011
   0.12068966  0.00000000  0.00000000       0.011
   0.13793103  0.00000000  0.00000000       0.011
   0.15517241  0.00000000  0.00000000       0.011
   0.17241379  0.00000000  0.00000000       0.011
   0.18965517  0.00000000  0.00000000       0.011
   0.20689655  0.00000000  0.00000000       0.011
   0.22413793  0.00000000  0.00000000       0.011
   0.24137931  0.00000000  0.00000000       0.011
   0.25862069  0.00000000  0.00000000       0.011
   0.27586207  0.00000000  0.00000000       0.011
   0.29310345  0.00000000  0.00000000       0.011
   0.31034483  0.00000000  0.00000000       0.011
   0.32758621  0.00000000  0.00000000       0.011
   0.34482759  0.00000000  0.00000000       0.011
   0.36206897  0.00000000  0.00000000       0.011
   0.37931034  0.00000000  0.00000000       0.011
   0.39655172  0.00000000  0.00000000       0.011
   0.41379310  0.00000000  0.00000000       0.011
   0.43103448  0.00000000  0.00000000       0.011
   0.44827586  0.00000000  0.00000000       0.011
   0.46551724  0.00000000  0.00000000       0.011
   0.48275862  0.00000000  0.00000000       0.011
   0.50000000  0.00000000  0.00000000       0.011
   0.50000000  0.00000000  0.00000000       0.011
   0.49425276  0.01149414  0.00000000       0.011
   0.48850552  0.02298828  0.00000000       0.011
   0.48275828  0.03448241  0.00000000       0.011
   0.47701103  0.04597655  0.00000000       0.011
   0.47126379  0.05747069  0.00000000       0.011
   0.46551655  0.06896483  0.00000000       0.011
   0.45976931  0.08045897  0.00000000       0.011
   0.45402207  0.09195310  0.00000000       0.011
   0.44827483  0.10344724  0.00000000       0.011
   0.44252759  0.11494138  0.00000000       0.011
   0.43678034  0.12643552  0.00000000       0.011
   0.43103310  0.13792966  0.00000000       0.011
   0.42528586  0.14942379  0.00000000       0.011
   0.41953862  0.16091793  0.00000000       0.011
   0.41379138  0.17241207  0.00000000       0.011
   0.40804414  0.18390621  0.00000000       0.011
   0.40229690  0.19540034  0.00000000       0.011
   0.39654966  0.20689448  0.00000000       0.011
   0.39080241  0.21838862  0.00000000       0.011
   0.38505517  0.22988276  0.00000000       0.011
   0.37930793  0.24137690  0.00000000       0.011
   0.37356069  0.25287103  0.00000000       0.011
   0.36781345  0.26436517  0.00000000       0.011
   0.36206621  0.27585931  0.00000000       0.011
   0.35631897  0.28735345  0.00000000       0.011
   0.35057172  0.29884759  0.00000000       0.011
   0.34482448  0.31034172  0.00000000       0.011
   0.33907724  0.32183586  0.00000000       0.011
   0.33333000  0.33333000  0.00000000       0.011
   0.33333000  0.33333000  0.00000000       0.011
   0.32183586  0.32183586  0.00000000       0.011
   0.31034172  0.31034172  0.00000000       0.011
   0.29884759  0.29884759  0.00000000       0.011
   0.28735345  0.28735345  0.00000000       0.011
   0.27585931  0.27585931  0.00000000       0.011
   0.26436517  0.26436517  0.00000000       0.011
   0.25287103  0.25287103  0.00000000       0.011
   0.24137690  0.24137690  0.00000000       0.011
   0.22988276  0.22988276  0.00000000       0.011
   0.21838862  0.21838862  0.00000000       0.011
   0.20689448  0.20689448  0.00000000       0.011
   0.19540034  0.19540034  0.00000000       0.011
   0.18390621  0.18390621  0.00000000       0.011
   0.17241207  0.17241207  0.00000000       0.011
   0.16091793  0.16091793  0.00000000       0.011
   0.14942379  0.14942379  0.00000000       0.011
   0.13792966  0.13792966  0.00000000       0.011
   0.12643552  0.12643552  0.00000000       0.011
   0.11494138  0.11494138  0.00000000       0.011
   0.10344724  0.10344724  0.00000000       0.011
   0.09195310  0.09195310  0.00000000       0.011
   0.08045897  0.08045897  0.00000000       0.011
   0.06896483  0.06896483  0.00000000       0.011
   0.05747069  0.05747069  0.00000000       0.011
   0.04597655  0.04597655  0.00000000       0.011
   0.03448241  0.03448241  0.00000000       0.011
   0.02298828  0.02298828  0.00000000       0.011
   0.01149414  0.01149414  0.00000000       0.011
   0.00000000  0.00000000  0.00000000       0.011

 position of ions in fractional coordinates (direct lattice) 
   0.00000000  0.00000000  0.14475063
   0.66666698  0.33333300  0.14475063

 position of ions in cartesian coordinates  (Angst):
   0.00000000  0.00000000  2.17125940
   1.23207033  0.71133475  2.17125940



--------------------------------------------------------------------------------------------------------


 k-point  1 :   0.0000 0.0000 0.0000  plane waves:    1387
 k-point  2 :   0.0172 0.0000 0.0000  plane waves:    1381
 k-point  3 :   0.0345 0.0000 0.0000  plane waves:    1381
 k-point  4 :   0.0517 0.0000 0.0000  plane waves:    1385
 k-point  5 :   0.0690 0.0000 0.0000  plane waves:    1383
 k-point  6 :   0.0862 0.0000 0.0000  plane waves:    1387
 k-point  7 :   0.1034 0.0000 0.0000  plane waves:    1387
 k-point  8 :   0.1207 0.0000 0.0000  plane waves:    1389
 k-point  9 :   0.1379 0.0000 0.0000  plane waves:    1391
 k-point 10 :   0.1552 0.0000 0.0000  plane waves:    1405
 k-point 11 :   0.1724 0.0000 0.0000  plane waves:    1405
 k-point 12 :   0.1897 0.0000 0.0000  plane waves:    1411
 k-point 13 :   0.2069 0.0000 0.0000  plane waves:    1421
 k-point 14 :   0.2241 0.0000 0.0000  plane waves:    1419
 k-point 15 :   0.2414 0.0000 0.0000  plane waves:    1425
 k-point 16 :   0.2586 0.0000 0.0000  plane waves:    1435
 k-point 17 :   0.2759 0.0000 0.0000  plane waves:    1435
 k-point 18 :   0.2931 0.0000 0.0000  plane waves:    1437
 k-point 19 :   0.3103 0.0000 0.0000  plane waves:    1433
 k-point 20 :   0.3276 0.0000 0.0000  plane waves:    1435
 k-point 21 :   0.3448 0.0000 0.0000  plane waves:    1431
 k-point 22 :   0.3621 0.0000 0.0000  plane waves:    1433
 k-point 23 :   0.3793 0.0000 0.0000  plane waves:    1433
 k-point 24 :   0.3966 0.0000 0.0000  plane waves:    1433
 k-point 25 :   0.4138 0.0000 0.0000  plane waves:    1431
 k-point 26 :   0.4310 0.0000 0.0000  plane waves:    1427
 k-point 27 :   0.4483 0.0000 0.0000  plane waves:    1429
 k-point 28 :   0.4655 0.0000 0.0000  plane waves:    1427
 k-point 29 :   0.4828 0.0000 0.0000  plane waves:    1424
 k-point 30 :   0.5000 0.0000 0.0000  plane waves:    1426
 k-point 31 :   0.5000 0.0000 0.0000  plane waves:    1426
 k-point 32 :   0.4943 0.0115 0.0000  plane waves:    1426
 k-point 33 :   0.4885 0.0230 0.0000  plane waves:    1430
 k-point 34 :   0.4828 0.0345 0.0000  plane waves:    1436
 k-point 35 :   0.4770 0.0460 0.0000  plane waves:    1438
 k-point 36 :   0.4713 0.0575 0.0000  plane waves:    1442
 k-point 37 :   0.4655 0.0690 0.0000  plane waves:    1450
 k-point 38 :   0.4598 0.0805 0.0000  plane waves:    1454
 k-point 39 :   0.4540 0.0920 0.0000  plane waves:    1446
 k-point 40 :   0.4483 0.1034 0.0000  plane waves:    1442
 k-point 41 :   0.4425 0.1149 0.0000  plane waves:    1448
 k-point 42 :   0.4368 0.1264 0.0000  plane waves:    1444
 k-point 43 :   0.4310 0.1379 0.0000  plane waves:    1436
 k-point 44 :   0.4253 0.1494 0.0000  plane waves:    1440
 k-point 45 :   0.4195 0.1609 0.0000  plane waves:    1448
 k-point 46 :   0.4138 0.1724 0.0000  plane waves:    1448
 k-point 47 :   0.4080 0.1839 0.0000  plane waves:    1446
 k-point 48 :   0.4023 0.1954 0.0000  plane waves:    1450
 k-point 49 :   0.3965 0.2069 0.0000  plane waves:    1446
 k-point 50 :   0.3908 0.2184 0.0000  plane waves:    1446
 k-point 51 :   0.3851 0.2299 0.0000  plane waves:    1444
 k-point 52 :   0.3793 0.2414 0.0000  plane waves:    1440
 k-point 53 :   0.3736 0.2529 0.0000  plane waves:    1444
 k-point 54 :   0.3678 0.2644 0.0000  plane waves:    1440
 k-point 55 :   0.3621 0.2759 0.0000  plane waves:    1440
 k-point 56 :   0.3563 0.2874 0.0000  plane waves:    1438
 k-point 57 :   0.3506 0.2988 0.0000  plane waves:    1430
 k-point 58 :   0.3448 0.3103 0.0000  plane waves:    1430
 k-point 59 :   0.3391 0.3218 0.0000  plane waves:    1426
 k-point 60 :   0.3333 0.3333 0.0000  plane waves:    1422
 k-point 61 :   0.3333 0.3333 0.0000  plane waves:    1422
 k-point 62 :   0.3218 0.3218 0.0000  plane waves:    1430
 k-point 63 :   0.3103 0.3103 0.0000  plane waves:    1438
 k-point 64 :   0.2988 0.2988 0.0000  plane waves:    1434
 k-point 65 :   0.2874 0.2874 0.0000  plane waves:    1440
 k-point 66 :   0.2759 0.2759 0.0000  plane waves:    1440
 k-point 67 :   0.2644 0.2644 0.0000  plane waves:    1446
 k-point 68 :   0.2529 0.2529 0.0000  plane waves:    1446
 k-point 69 :   0.2414 0.2414 0.0000  plane waves:    1448
 k-point 70 :   0.2299 0.2299 0.0000  plane waves:    1448
 k-point 71 :   0.2184 0.2184 0.0000  plane waves:    1444
 k-point 72 :   0.2069 0.2069 0.0000  plane waves:    1444
 k-point 73 :   0.1954 0.1954 0.0000  plane waves:    1442
 k-point 74 :   0.1839 0.1839 0.0000  plane waves:    1438
 k-point 75 :   0.1724 0.1724 0.0000  plane waves:    1446
 k-point 76 :   0.1609 0.1609 0.0000  plane waves:    1428
 k-point 77 :   0.1494 0.1494 0.0000  plane waves:    1434
 k-point 78 :   0.1379 0.1379 0.0000  plane waves:    1422
 k-point 79 :   0.1264 0.1264 0.0000  plane waves:    1416
 k-point 80 :   0.1149 0.1149 0.0000  plane waves:    1422
 k-point 81 :   0.1034 0.1034 0.0000  plane waves:    1406
 k-point 82 :   0.0920 0.0920 0.0000  plane waves:    1398
 k-point 83 :   0.0805 0.0805 0.0000  plane waves:    1390
 k-point 84 :   0.0690 0.0690 0.0000  plane waves:    1390
 k-point 85 :   0.0575 0.0575 0.0000  plane waves:    1394
 k-point 86 :   0.0460 0.0460 0.0000  plane waves:    1392
 k-point 87 :   0.0345 0.0345 0.0000  plane waves:    1384
 k-point 88 :   0.0230 0.0230 0.0000  plane waves:    1380
 k-point 89 :   0.0115 0.0115 0.0000  plane waves:    1380
 k-point 90 :   0.0000 0.0000 0.0000  plane waves:    1387

 maximum and minimum number of plane-waves per node :      1454     1380

 maximum number of plane-waves:      1454
 maximum index in each direction: 
   IXMAX=    4   IYMAX=    4   IZMAX=   24
   IXMIN=   -4   IYMIN=   -4   IZMIN=  -24


 serial   3D FFT for wavefunctions
 parallel 3D FFT for charge:
    minimum data exchange during FFTs selected (reduces bandwidth)


 total amount of memory used by VASP MPI-rank0    64713. kBytes
=======================================================================

   base      :      30000. kBytes
   nonl-proj :       8421. kBytes
   fftplans  :       3495. kBytes
   grid      :       5857. kBytes
   one-center:          6. kBytes
   wavefun   :      16934. kBytes

     INWAV:  cpu time    0.0000: real time    0.0000
 initial charge density was supplied:
 number of electron       8.0000000 magnetization 
 keeping initial charge density in first step


--------------------------------------------------------------------------------------------------------


 Maximum index for augmentation-charges         1826 (set IRDMAX)


--------------------------------------------------------------------------------------------------------


 First call to EWALD:  gamma=   0.413
 Maximum number of real-space cells 5x 5x 1
 Maximum number of reciprocal cells 2x 2x 8

    FEWALD:  cpu time    0.0005: real time    0.0005


--------------------------------------- Iteration      1(   1)  ---------------------------------------


    POTLOK:  cpu time    0.0449: real time    0.0464
    SETDIJ:  cpu time    0.0012: real time    0.0012
     EDDAV:  cpu time    3.2623: real time    3.5525
       DOS:  cpu time    0.0019: real time    0.0033
    --------------------------------------------
      LOOP:  cpu time    3.3102: real time    3.6034

 eigenvalue-minimisations  :  2936
 total energy-change (2. order) : 0.2431435E+02  (-0.2614002E+03)
 number of electron       8.0000000 magnetization 
 augmentation part        8.0000000 magnetization 

 Free energy of the ion-electron system (eV)
  ---------------------------------------------------
  alpha Z        PSCENC =         4.16579751
  Ewald energy   TEWEN  =       838.31313047
  -Hartree energ DENC   =     -1090.27479332
  -exchange      EXHF   =         0.00000000
  -V(xc)+E(xc)   XCENC  =        27.55628356
  PAW double counting   =       859.68827702     -861.04133284
  entropy T*S    EENTRO =        -0.00006437
  eigenvalues    EBANDS =       -48.34739103
  atomic energy  EATOM  =       294.25444774
  Solvation  Ediel_sol  =         0.00000000
  ---------------------------------------------------
  free energy    TOTEN  =        24.31435475 eV

  energy without entropy =       24.31441912  energy(sigma->0) =       24.31438694


--------------------------------------------------------------------------------------------------------




--------------------------------------- Iteration      1(   2)  ---------------------------------------


     EDDAV:  cpu time    3.5112: real time    3.5570
       DOS:  cpu time    0.0014: real time    0.0014
    --------------------------------------------
      LOOP:  cpu time    3.5125: real time    3.5584

 eigenvalue-minimisations  :  4008
 total energy-change (2. order) :-0.3956677E+02  (-0.3351044E+02)
 number of electron       8.0000000 magnetization 
 augmentation part        8.0000000 magnetization 

 Free energy of the ion-electron system (eV)
  ---------------------------------------------------
  alpha Z        PSCENC =         4.16579751
  Ewald energy   TEWEN  =       838.31313047
  -Hartree energ DENC   =     -1090.27479332
  -exchange      EXHF   =         0.00000000
  -V(xc)+E(xc)   XCENC  =        27.55628356
  PAW double counting   =       859.68827702     -861.04133284
  entropy T*S    EENTRO =        -0.00000000
  eigenvalues    EBANDS =       -87.91422568
  atomic energy  EATOM  =       294.25444774
  Solvation  Ediel_sol  =         0.00000000
  ---------------------------------------------------
  free energy    TOTEN  =       -15.25241553 eV

  energy without entropy =      -15.25241553  energy(sigma->0) =      -15.25241553


--------------------------------------------------------------------------------------------------------




--------------------------------------- Iteration      1(   3)  ---------------------------------------


     EDDAV:  cpu time    3.1617: real time    3.1739
       DOS:  cpu time    0.0009: real time    0.0009
    --------------------------------------------
      LOOP:  cpu time    3.1626: real time    3.1748

 eigenvalue-minimisations  :  3656
 total energy-change (2. order) :-0.2068462E+01  (-0.2061225E+01)
 number of electron       8.0000000 magnetization 
 augmentation part        8.0000000 magnetization 

 Free energy of the ion-electron system (eV)
  ---------------------------------------------------
  alpha Z        PSCENC =         4.16579751
  Ewald energy   TEWEN  =       838.31313047
  -Hartree energ DENC   =     -1090.27479332
  -exchange      EXHF   =         0.00000000
  -V(xc)+E(xc)   XCENC  =        27.55628356
  PAW double counting   =       859.68827702     -861.04133284
  entropy T*S    EENTRO =        -0.00024781
  eigenvalues    EBANDS =       -89.98243958
  atomic energy  EATOM  =       294.25444774
  Solvation  Ediel_sol  =         0.00000000
  ---------------------------------------------------
  free energy    TOTEN  =       -17.32087724 eV

  energy without entropy =      -17.32062943  energy(sigma->0) =      -17.32075333


--------------------------------------------------------------------------------------------------------




--------------------------------------- Iteration      1(   4)  ---------------------------------------


     EDDAV:  cpu time    3.1965: real time    3.2030
       DOS:  cpu time    0.0009: real time    0.0009
    --------------------------------------------
      LOOP:  cpu time    3.1974: real time    3.2039

 eigenvalue-minimisations  :  3728
 total energy-change (2. order) :-0.1556596E-01  (-0.1556259E-01)
 number of electron       8.0000000 magnetization 
 augmentation part        8.0000000 magnetization 

 Free energy of the ion-electron system (eV)
  ---------------------------------------------------
  alpha Z        PSCENC =         4.16579751
  Ewald energy   TEWEN  =       838.31313047
  -Hartree energ DENC   =     -1090.27479332
  -exchange      EXHF   =         0.00000000
  -V(xc)+E(xc)   XCENC  =        27.55628356
  PAW double counting   =       859.68827702     -861.04133284
  entropy T*S    EENTRO =        -0.00025072
  eigenvalues    EBANDS =       -89.99800263
  atomic energy  EATOM  =       294.25444774
  Solvation  Ediel_sol  =         0.00000000
  ---------------------------------------------------
  free energy    TOTEN  =       -17.33644320 eV

  energy without entropy =      -17.33619248  energy(sigma->0) =      -17.33631784


--------------------------------------------------------------------------------------------------------




--------------------------------------- Iteration      1(   5)  ---------------------------------------


     EDDAV:  cpu time    3.1619: real time    3.1674
       DOS:  cpu time    0.0013: real time    0.0013
    --------------------------------------------
      LOOP:  cpu time    3.1632: real time    3.1687

 eigenvalue-minimisations  :  3672
 total energy-change (2. order) :-0.1320796E-03  (-0.1320789E-03)
 number of electron       8.0000000 magnetization 
 augmentation part        8.0000000 magnetization 

 Free energy of the ion-electron system (eV)
  ---------------------------------------------------
  alpha Z        PSCENC =         4.16579751
  Ewald energy   TEWEN  =       838.31313047
  -Hartree energ DENC   =     -1090.27479332
  -exchange      EXHF   =         0.00000000
  -V(xc)+E(xc)   XCENC  =        27.55628356
  PAW double counting   =       859.68827702     -861.04133284
  entropy T*S    EENTRO =        -0.00025072
  eigenvalues    EBANDS =       -89.99813471
  atomic energy  EATOM  =       294.25444774
  Solvation  Ediel_sol  =         0.00000000
  ---------------------------------------------------
  free energy    TOTEN  =       -17.33657528 eV

  energy without entropy =      -17.33632456  energy(sigma->0) =      -17.33644992


--------------------------------------------------------------------------------------------------------




--------------------------------------- Iteration      1(   6)  ---------------------------------------


     EDDAV:  cpu time    3.4075: real time    3.4153
       DOS:  cpu time    0.0008: real time    0.0008
    --------------------------------------------
      LOOP:  cpu time    3.4083: real time    3.4161

 eigenvalue-minimisations  :  3992
 total energy-change (2. order) :-0.3534200E-05  (-0.3534356E-05)
 number of electron       8.0000000 magnetization 
 augmentation part        8.0000000 magnetization 

 Free energy of the ion-electron system (eV)
  ---------------------------------------------------
  alpha Z        PSCENC =         4.16579751
  Ewald energy   TEWEN  =       838.31313047
  -Hartree energ DENC   =     -1090.27479332
  -exchange      EXHF   =         0.00000000
  -V(xc)+E(xc)   XCENC  =        27.55628356
  PAW double counting   =       859.68827702     -861.04133284
  entropy T*S    EENTRO =        -0.00025072
  eigenvalues    EBANDS =       -89.99813824
  atomic energy  EATOM  =       294.25444774
  Solvation  Ediel_sol  =         0.00000000
  ---------------------------------------------------
  free energy    TOTEN  =       -17.33657882 eV

  energy without entropy =      -17.33632809  energy(sigma->0) =      -17.33645345


--------------------------------------------------------------------------------------------------------




--------------------------------------- Iteration      1(   7)  ---------------------------------------


     EDDAV:  cpu time    3.0901: real time    3.0943
       DOS:  cpu time    0.0012: real time    0.0012
    --------------------------------------------
      LOOP:  cpu time    3.0914: real time    3.0955

 eigenvalue-minimisations  :  3552
 total energy-change (2. order) :-0.1316585E-06  (-0.1315916E-06)
 number of electron       8.0000000 magnetization 
 augmentation part        8.0000000 magnetization 

 Free energy of the ion-electron system (eV)
  ---------------------------------------------------
  alpha Z        PSCENC =         4.16579751
  Ewald energy   TEWEN  =       838.31313047
  -Hartree energ DENC   =     -1090.27479332
  -exchange      EXHF   =         0.00000000
  -V(xc)+E(xc)   XCENC  =        27.55628356
  PAW double counting   =       859.68827702     -861.04133284
  entropy T*S    EENTRO =        -0.00025072
  eigenvalues    EBANDS =       -89.99813838
  atomic energy  EATOM  =       294.25444774
  Solvation  Ediel_sol  =         0.00000000
  ---------------------------------------------------
  free energy    TOTEN  =       -17.33657895 eV

  energy without entropy =      -17.33632822  energy(sigma->0) =      -17.33645359


--------------------------------------------------------------------------------------------------------




 average (electrostatic) potential at core
  the test charge radii are     0.6991
  (the norm of the test charge is              1.0000)
       1 -57.6966       2 -57.6966



 E-fermi :  -2.2392     XC(G=0):  -2.8885     alpha+bet : -2.5412


 k-point     1 :       0.0000    0.0000    0.0000
  band No.  band energies     occupation 
      1     -21.7799      2.00000
      2      -9.8751      2.00000
      3      -5.2698      2.00000
      4      -5.2697      2.00000
      5       1.0049      0.00000
      6       1.9039      0.00000
      7       2.4219      0.00000
      8       4.2937      0.00000
      9       5.0977      0.00000
     10       6.1192      0.00000
     11       6.1192      0.00000
     12       8.2197      0.00000
     13       9.2375      0.00000
     14       9.3293      0.00000
     15      10.2989      0.00000
     16      13.5452      0.00000

 k-point     2 :       0.0172    0.0000    0.0000
  band No.  band energies     occupation 
      1     -21.7729      2.00000
      2      -9.8667      2.00000
      3      -5.2996      2.00000
      4      -5.2851      2.00000
      5       1.0144      0.00000
      6       1.9135      0.00000
      7       2.4317      0.00000
      8       4.3033      0.00000
      9       5.1071      0.00000
     10       6.1254      0.00000
     11       6.1509      0.00000
     12       8.2291      0.00000
     13       9.2143      0.00000
     14       9.3390      0.00000
     15      10.3114      0.00000
     16      13.5539      0.00000

 k-point     3 :       0.0345    0.0000    0.0000
  band No.  band energies     occupation 
      1     -21.7518      2.00000
      2      -9.8415      2.00000
      3      -5.3873      2.00000
      4      -5.3316      2.00000
      5       1.0431      0.00000
      6       1.9425      0.00000
      7       2.4608      0.00000
      8       4.3320      0.00000
      9       5.1351      0.00000
     10       6.1397      0.00000
     11       6.2434      0.00000
     12       8.2570      0.00000
     13       9.1376      0.00000
     14       9.3680      0.00000
     15      10.3492      0.00000
     16      13.5798      0.00000

 k-point     4 :       0.0517    0.0000    0.0000
  band No.  band energies     occupation 
      1     -21.7166      2.00000
      2      -9.7994      2.00000
      3      -5.5303      2.00000
      4      -5.4066      2.00000
      5       1.0909      0.00000
      6       1.9906      0.00000
      7       2.5095      0.00000
      8       4.3799      0.00000
      9       5.1818      0.00000
     10       6.1558      0.00000
     11       6.3947      0.00000
     12       8.3034      0.00000
     13       9.0145      0.00000
     14       9.4163      0.00000
     15      10.4138      0.00000
     16      13.6227      0.00000

 k-point     5 :       0.0690    0.0000    0.0000
  band No.  band energies     occupation 
      1     -21.6674      2.00000
      2      -9.7403      2.00000
      3      -5.7251      2.00000
      4      -5.5077      2.00000
      5       1.1578      0.00000
      6       2.0582      0.00000
      7       2.5776      0.00000
      8       4.4470      0.00000
      9       5.2470      0.00000
     10       6.1740      0.00000
     11       6.6046      0.00000
     12       8.3685      0.00000
     13       8.8452      0.00000
     14       9.4838      0.00000
     15      10.5068      0.00000
     16      13.6829      0.00000

 k-point     6 :       0.0862    0.0000    0.0000
  band No.  band energies     occupation 
      1     -21.6041      2.00000
      2      -9.6649      2.00000
      3      -5.9669      2.00000
      4      -5.6324      2.00000
      5       1.2438      0.00000
      6       2.1449      0.00000
      7       2.6651      0.00000
      8       4.5331      0.00000
      9       5.3308      0.00000
     10       6.1911      0.00000
     11       6.8664      0.00000
     12       8.4511      0.00000
     13       8.6312      0.00000
     14       9.5704      0.00000
     15      10.6297      0.00000
     16      13.7593      0.00000

 k-point     7 :       0.1034    0.0000    0.0000
  band No.  band energies     occupation 
      1     -21.5269      2.00000
      2      -9.5729      2.00000
      3      -6.2508      2.00000
      4      -5.7756      2.00000
      5       1.3490      0.00000
      6       2.2508      0.00000
      7       2.7721      0.00000
      8       4.6382      0.00000
      9       5.4327      0.00000
     10       6.2022      0.00000
     11       7.1778      0.00000
     12       8.3740      0.00000
     13       8.5563      0.00000
     14       9.6758      0.00000
     15      10.7837      0.00000
     16      13.8519      0.00000

 k-point     8 :       0.1207    0.0000    0.0000
  band No.  band energies     occupation 
      1     -21.4356      2.00000
      2      -9.4644      2.00000
      3      -6.5709      2.00000
      4      -5.9342      2.00000
      5       1.4732      0.00000
      6       2.3759      0.00000
      7       2.8986      0.00000
      8       4.7623      0.00000
      9       5.5519      0.00000
     10       6.2051      0.00000
     11       7.5321      0.00000
     12       8.0847      0.00000
     13       8.6757      0.00000
     14       9.7999      0.00000
     15      10.9688      0.00000
     16      13.9601      0.00000

 k-point     9 :       0.1379    0.0000    0.0000
  band No.  band energies     occupation 
      1     -21.3305      2.00000
      2      -9.3394      2.00000
      3      -6.9230      2.00000
      4      -6.1043      2.00000
      5       1.6166      0.00000
      6       2.5201      0.00000
      7       3.0445      0.00000
      8       4.9054      0.00000
      9       5.6863      0.00000
     10       6.1993      0.00000
     11       7.7606      0.00000
     12       7.9303      0.00000
     13       8.8142      0.00000
     14       9.9427      0.00000
     15      11.1815      0.00000
     16      14.0834      0.00000

 k-point    10 :       0.1552    0.0000    0.0000
  band No.  band energies     occupation 
      1     -21.2115      2.00000
      2      -9.1985      2.00000
      3      -7.3023      2.00000
      4      -6.2830      2.00000
      5       1.7790      0.00000
      6       2.6834      0.00000
      7       3.2099      0.00000
      8       5.0670      0.00000
      9       5.8284      0.00000
     10       6.1909      0.00000
     11       7.4027      0.00000
     12       8.3635      0.00000
     13       8.9709      0.00000
     14      10.1039      0.00000
     15      11.4197      0.00000
     16      14.2205      0.00000

 k-point    11 :       0.1724    0.0000    0.0000
  band No.  band energies     occupation 
      1     -21.0787      2.00000
      2      -9.0414      2.00000
      3      -7.7026      2.00000
      4      -6.4665      2.00000
      5       1.9605      0.00000
      6       2.8656      0.00000
      7       3.3947      0.00000
      8       5.2469      0.00000
      9       5.9499      0.00000
     10       6.2127      0.00000
     11       7.0206      0.00000
     12       8.8333      0.00000
     13       9.1457      0.00000
     14      10.2837      0.00000
     15      11.6802      0.00000
     16      14.3706      0.00000

 k-point    12 :       0.1897    0.0000    0.0000
  band No.  band energies     occupation 
      1     -20.9322      2.00000
      2      -8.8685      2.00000
      3      -8.1208      2.00000
      4      -6.6526      2.00000
      5       2.1610      0.00000
      6       3.0667      0.00000
      7       3.5989      0.00000
      8       5.4436      0.00000
      9       5.9889      0.00000
     10       6.3269      0.00000
     11       6.6180      0.00000
     12       9.3281      0.00000
     13       9.3385      0.00000
     14      10.4818      0.00000
     15      11.9567      0.00000
     16      14.5319      0.00000

 k-point    13 :       0.2069    0.0000    0.0000
  band No.  band energies     occupation 
      1     -20.7720      2.00000
      2      -8.6801      2.00000
      3      -8.5526      2.00000
      4      -6.8388      2.00000
      5       2.3804      0.00000
      6       3.2862      0.00000
      7       3.8225      0.00000
      8       5.6492      0.00000
      9       5.9609      0.00000
     10       6.2037      0.00000
     11       6.5174      0.00000
     12       9.5486      0.00000
     13       9.8497      0.00000
     14      10.6983      0.00000
     15      12.2432      0.00000
     16      14.7011      0.00000

 k-point    14 :       0.2241    0.0000    0.0000
  band No.  band energies     occupation 
      1     -20.5982      2.00000
      2      -8.9944      2.00000
      3      -8.4767      2.00000
      4      -7.0217      2.00000
      5       2.6189      0.00000
      6       3.5233      0.00000
      7       4.0654      0.00000
      8       5.6765      0.00000
      9       5.9111      0.00000
     10       5.9715      0.00000
     11       6.7445      0.00000
     12       9.7761      0.00000
     13      10.3926      0.00000
     14      10.9333      0.00000
     15      12.5379      0.00000
     16      14.8745      0.00000

 k-point    15 :       0.2414    0.0000    0.0000
  band No.  band energies     occupation 
      1     -20.4110      2.00000
      2      -9.4444      2.00000
      3      -8.2586      2.00000
      4      -7.2006      2.00000
      5       2.8762      0.00000
      6       3.7758      0.00000
      7       4.3276      0.00000
      8       5.2655      0.00000
      9       5.8509      0.00000
     10       6.1861      0.00000
     11       6.9962      0.00000
     12      10.0204      0.00000
     13      10.9528      0.00000
     14      11.1865      0.00000
     15      12.8249      0.00000
     16      15.0454      0.00000

 k-point    16 :       0.2586    0.0000    0.0000
  band No.  band energies     occupation 
      1     -20.2105      2.00000
      2      -9.8994      2.00000
      3      -8.0268      2.00000
      4      -7.3734      2.00000
      5       3.1522      0.00000
      6       4.0330      0.00000
      7       4.6087      0.00000
      8       4.8222      0.00000
      9       5.7855      0.00000
     10       6.4551      0.00000
     11       7.2693      0.00000
     12      10.2806      0.00000
     13      11.4578      0.00000
     14      11.5276      0.00000
     15      13.0986      0.00000
     16      15.2018      0.00000

 k-point    17 :       0.2759    0.0000    0.0000
  band No.  band energies     occupation 
      1     -19.9968      2.00000
      2     -10.3568      2.00000
      3      -7.7810      2.00000
      4      -7.5387      2.00000
      5       3.4468      0.00000
      6       4.1554      0.00000
      7       4.5217      0.00000
      8       4.9082      0.00000
      9       5.7191      0.00000
     10       6.7469      0.00000
     11       7.5626      0.00000
     12      10.5567      0.00000
     13      11.7472      0.00000
     14      12.1155      0.00000
     15      13.3440      0.00000
     16      15.3260      0.00000

 k-point    18 :       0.2931    0.0000    0.0000
  band No.  band energies     occupation 
      1     -19.7700      2.00000
      2     -10.8153      2.00000
      3      -7.6954      2.00000
      4      -7.5224      2.00000
      5       3.7599      0.00000
      6       3.7853      0.00000
      7       4.7260      0.00000
      8       5.2230      0.00000
      9       5.6581      0.00000
     10       7.0584      0.00000
     11       7.8754      0.00000
     12      10.8475      0.00000
     13      12.0543      0.00000
     14      12.7098      0.00000
     15      13.5350      0.00000
     16      15.3845      0.00000

 k-point    19 :       0.3103    0.0000    0.0000
  band No.  band energies     occupation 
      1     -19.5304      2.00000
      2     -11.2731      2.00000
      3      -7.8425      2.00000
      4      -7.2514      2.00000
      5       3.3177      0.00000
      6       4.0910      0.00000
      7       5.0445      0.00000
      8       5.5033      0.00000
      9       5.6528      0.00000
     10       7.3888      0.00000
     11       8.2075      0.00000
     12      11.1518      0.00000
     13      12.3790      0.00000
     14      13.3095      0.00000
     15      13.6443      0.00000
     16      15.3316      0.00000

 k-point    20 :       0.3276    0.0000    0.0000
  band No.  band energies     occupation 
      1     -19.2783      2.00000
      2     -11.7280      2.00000
      3      -7.9793      2.00000
      4      -6.9709      2.00000
      5       2.8406      0.00000
      6       4.4390      0.00000
      7       5.3921      0.00000
      8       5.5058      0.00000
      9       5.9495      0.00000
     10       7.7373      0.00000
     11       8.5584      0.00000
     12      11.4668      0.00000
     13      12.7199      0.00000
     14      13.6372      0.00000
     15      13.9049      0.00000
     16      15.1335      0.00000

 k-point    21 :       0.3448    0.0000    0.0000
  band No.  band energies     occupation 
      1     -19.0140      2.00000
      2     -12.1789      2.00000
      3      -8.1046      2.00000
      4      -6.6814      2.00000
      5       2.3674      0.00000
      6       4.8004      0.00000
      7       5.4598      0.00000
      8       5.7612      0.00000
      9       6.3222      0.00000
     10       8.1037      0.00000
     11       8.9280      0.00000
     12      11.7893      0.00000
     13      13.0725      0.00000
     14      13.4864      0.00000
     15      14.4922      0.00000
     16      14.8043      0.00000

 k-point    22 :       0.3621    0.0000    0.0000
  band No.  band energies     occupation 
      1     -18.7377      2.00000
      2     -12.6244      2.00000
      3      -8.2185      2.00000
      4      -6.3856      2.00000
      5       1.9013      0.00000
      6       5.1506      0.00000
      7       5.4435      0.00000
      8       6.1497      0.00000
      9       6.7185      0.00000
     10       8.4874      0.00000
     11       9.3162      0.00000
     12      12.1115      0.00000
     13      13.1511      0.00000
     14      13.4766      0.00000
     15      14.3871      0.00000
     16      15.0616      0.00000

 k-point    23 :       0.3793    0.0000    0.0000
  band No.  band energies     occupation 
      1     -18.4502      2.00000
      2     -13.0631      2.00000
      3      -8.3200      2.00000
      4      -6.0868      2.00000
      5       1.4483      0.00000
      6       5.2899      0.00000
      7       5.6607      0.00000
      8       6.5569      0.00000
      9       7.1352      0.00000
     10       8.8878      0.00000
     11       9.7225      0.00000
     12      12.4141      0.00000
     13      12.7396      0.00000
     14      13.8567      0.00000
     15      13.9329      0.00000
     16      14.8851      0.00000

 k-point    24 :       0.3966    0.0000    0.0000
  band No.  band energies     occupation 
      1     -18.1523      2.00000
      2     -13.4933      2.00000
      3      -8.4087      2.00000
      4      -5.7889      2.00000
      5       1.0145      0.00000
      6       5.2695      0.00000
      7       6.0608      0.00000
      8       6.9821      0.00000
      9       7.5715      0.00000
     10       9.3042      0.00000
     11      10.1467      0.00000
     12      12.2457      0.00000
     13      12.6215      0.00000
     14      13.5343      0.00000
     15      14.2220      0.00000
     16      14.2809      0.00000

 k-point    25 :       0.4138    0.0000    0.0000
  band No.  band energies     occupation 
      1     -17.8452      2.00000
      2     -13.9133      2.00000
      3      -8.4846      2.00000
      4      -5.4986      2.00000
      5       0.6068      0.00000
      6       5.2379      0.00000
      7       6.4964      0.00000
      8       7.4249      0.00000
      9       8.0273      0.00000
     10       9.7351      0.00000
     11      10.5879      0.00000
     12      11.7115      0.00000
     13      12.4907      0.00000
     14      13.4329      0.00000
     15      13.5993      0.00000
     16      14.6815      0.00000

 k-point    26 :       0.4310    0.0000    0.0000
  band No.  band energies     occupation 
      1     -17.5315      2.00000
      2     -14.3202      2.00000
      3      -8.5468      2.00000
      4      -5.2244      2.00000
      5       0.2362      0.00000
      6       5.2084      0.00000
      7       6.9530      0.00000
      8       7.8847      0.00000
      9       8.5022      0.00000
     10      10.1774      0.00000
     11      11.0328      0.00000
     12      11.1724      0.00000
     13      12.0532      0.00000
     14      12.9679      0.00000
     15      13.5514      0.00000
     16      14.5698      0.00000

 k-point    27 :       0.4483    0.0000    0.0000
  band No.  band energies     occupation 
      1     -17.2158      2.00000
      2     -14.7086      2.00000
      3      -8.5956      2.00000
      4      -4.9802      2.00000
      5      -0.0845      0.00000
      6       5.1847      0.00000
      7       7.4279      0.00000
      8       8.3603      0.00000
      9       8.9961      0.00000
     10      10.5958      0.00000
     11      10.6187      0.00000
     12      11.5265      0.00000
     13      11.5496      0.00000
     14      12.3498      0.00000
     15      13.4849      0.00000
     16      14.4166      0.00000

 k-point    28 :       0.4655    0.0000    0.0000
  band No.  band energies     occupation 
      1     -16.9099      2.00000
      2     -15.0666      2.00000
      3      -8.6305      2.00000
      4      -4.7825      2.00000
      5      -0.3370      0.00000
      6       5.1674      0.00000
      7       7.9194      0.00000
      8       8.8502      0.00000
      9       9.5079      0.00000
     10      10.0431      0.00000
     11      10.8519      0.00000
     12      11.2467      0.00000
     13      11.7453      0.00000
     14      12.0186      0.00000
     15      13.1317      0.00000
     16      14.1057      0.00000

 k-point    29 :       0.4828    0.0000    0.0000
  band No.  band energies     occupation 
      1     -16.6481      2.00000
      2     -15.3596      2.00000
      3      -8.6514      2.00000
      4      -4.6516      2.00000
      5      -0.5015      0.00000
      6       5.1574      0.00000
      7       8.4253      0.00000
      8       9.3498      0.00000
      9       9.4947      0.00000
     10      10.0431      0.00000
     11      10.4118      0.00000
     12      11.1605      0.00000
     13      11.6148      0.00000
     14      12.5228      0.00000
     15      12.6926      0.00000
     16      13.5721      0.00000

 k-point    30 :       0.5000    0.0000    0.0000
  band No.  band energies     occupation 
      1     -16.5288      2.00000
      2     -15.4895      2.00000
      3      -8.6584      2.00000
      4      -4.6060      2.00000
      5      -0.5589      0.00000
      6       5.1536      0.00000
      7       8.8782      0.00000
      8       9.0294      0.00000
      9       9.7642      0.00000
     10       9.9942      0.00000
     11      10.5805      0.00000
     12      10.6042      0.00000
     13      11.9138      0.00000
     14      12.3879      0.00000
     15      13.0082      0.00000
     16      13.0767      0.00000

 k-point    31 :       0.5000    0.0000    0.0000
  band No.  band energies     occupation 
      1     -16.5288      2.00000
      2     -15.4895      2.00000
      3      -8.6584      2.00000
      4      -4.6060      2.00000
      5      -0.5589      0.00000
      6       5.1536      0.00000
      7       8.8782      0.00000
      8       9.0294      0.00000
      9       9.7642      0.00000
     10       9.9942      0.00000
     11      10.5805      0.00000
     12      10.6042      0.00000
     13      11.9138      0.00000
     14      12.3879      0.00000
     15      13.0082      0.00000
     16      13.0767      0.00000

 k-point    32 :       0.4943    0.0115    0.0000
  band No.  band energies     occupation 
      1     -16.5267      2.00000
      2     -15.4875      2.00000
      3      -8.6690      2.00000
      4      -4.6032      2.00000
      5      -0.5595      0.00000
      6       5.1680      0.00000
      7       8.8810      0.00000
      8       9.0324      0.00000
      9       9.7643      0.00000
     10       9.9974      0.00000
     11      10.5836      0.00000
     12      10.6074      0.00000
     13      11.9125      0.00000
     14      12.3911      0.00000
     15      13.0106      0.00000
     16      13.0796      0.00000

 k-point    33 :       0.4885    0.0230    0.0000
  band No.  band energies     occupation 
      1     -16.5207      2.00000
      2     -15.4816      2.00000
      3      -8.7008      2.00000
      4      -4.5952      2.00000
      5      -0.5618      0.00000
      6       5.2110      0.00000
      7       8.8893      0.00000
      8       9.0411      0.00000
      9       9.7641      0.00000
     10      10.0070      0.00000
     11      10.5930      0.00000
     12      10.6169      0.00000
     13      11.9084      0.00000
     14      12.4007      0.00000
     15      13.0177      0.00000
     16      13.0880      0.00000

 k-point    34 :       0.4828    0.0345    0.0000
  band No.  band energies     occupation 
      1     -16.5107      2.00000
      2     -15.4716      2.00000
      3      -8.7536      2.00000
      4      -4.5809      2.00000
      5      -0.5652      0.00000
      6       5.2822      0.00000
      7       8.9031      0.00000
      8       9.0558      0.00000
      9       9.7636      0.00000
     10      10.0231      0.00000
     11      10.6086      0.00000
     12      10.6328      0.00000
     13      11.9017      0.00000
     14      12.4167      0.00000
     15      13.0295      0.00000
     16      13.1021      0.00000

 k-point    35 :       0.4770    0.0460    0.0000
  band No.  band energies     occupation 
      1     -16.4966      2.00000
      2     -15.4577      2.00000
      3      -8.8260      2.00000
      4      -4.5605      2.00000
      5      -0.5696      0.00000
      6       5.3809      0.00000
      7       8.9225      0.00000
      8       9.0765      0.00000
      9       9.7623      0.00000
     10      10.0457      0.00000
     11      10.6305      0.00000
     12      10.6550      0.00000
     13      11.8920      0.00000
     14      12.4393      0.00000
     15      13.0459      0.00000
     16      13.1220      0.00000

 k-point    36 :       0.4713    0.0575    0.0000
  band No.  band energies     occupation 
      1     -16.4785      2.00000
      2     -15.4399      2.00000
      3      -8.9177      2.00000
      4      -4.5348      2.00000
      5      -0.5762      0.00000
      6       5.5057      0.00000
      7       8.9473      0.00000
      8       9.1029      0.00000
      9       9.7591      0.00000
     10      10.0747      0.00000
     11      10.6587      0.00000
     12      10.6836      0.00000
     13      11.8789      0.00000
     14      12.4683      0.00000
     15      13.0667      0.00000
     16      13.1473      0.00000

 k-point    37 :       0.4655    0.0690    0.0000
  band No.  band energies     occupation 
      1     -16.4564      2.00000
      2     -15.4182      2.00000
      3      -9.0270      2.00000
      4      -4.5035      2.00000
      5      -0.5851      0.00000
      6       5.6552      0.00000
      7       8.9774      0.00000
      8       9.1351      0.00000
      9       9.7529      0.00000
     10      10.1102      0.00000
     11      10.6930      0.00000
     12      10.7185      0.00000
     13      11.8625      0.00000
     14      12.5037      0.00000
     15      13.0916      0.00000
     16      13.1781      0.00000

 k-point    38 :       0.4598    0.0805    0.0000
  band No.  band energies     occupation 
      1     -16.4303      2.00000
      2     -15.3927      2.00000
      3      -9.1530      2.00000
      4      -4.4664      2.00000
      5      -0.5958      0.00000
      6       5.8287      0.00000
      7       9.0130      0.00000
      8       9.1732      0.00000
      9       9.7426      0.00000
     10      10.1521      0.00000
     11      10.7336      0.00000
     12      10.7598      0.00000
     13      11.8431      0.00000
     14      12.5455      0.00000
     15      13.1209      0.00000
     16      13.2145      0.00000

 k-point    39 :       0.4540    0.0920    0.0000
  band No.  band energies     occupation 
      1     -16.4002      2.00000
      2     -15.3634      2.00000
      3      -9.2937      2.00000
      4      -4.4234      2.00000
      5      -0.6090      0.00000
      6       6.0246      0.00000
      7       9.0539      0.00000
      8       9.2170      0.00000
      9       9.7267      0.00000
     10      10.2005      0.00000
     11      10.7804      0.00000
     12      10.8073      0.00000
     13      11.8215      0.00000
     14      12.5938      0.00000
     15      13.1541      0.00000
     16      13.2563      0.00000

 k-point    40 :       0.4483    0.1034    0.0000
  band No.  band energies     occupation 
      1     -16.3660      2.00000
      2     -15.3304      2.00000
      3      -9.4481      2.00000
      4      -4.3750      2.00000
      5      -0.6244      0.00000
      6       6.2407      0.00000
      7       9.1002      0.00000
      8       9.2666      0.00000
      9       9.7035      0.00000
     10      10.2553      0.00000
     11      10.8334      0.00000
     12      10.8612      0.00000
     13      11.7989      0.00000
     14      12.6485      0.00000
     15      13.1909      0.00000
     16      13.3033      0.00000

 k-point    41 :       0.4425    0.1149    0.0000
  band No.  band energies     occupation 
      1     -16.3278      2.00000
      2     -15.2939      2.00000
      3      -9.6154      2.00000
      4      -4.3209      2.00000
      5      -0.6443      0.00000
      6       6.4753      0.00000
      7       9.1515      0.00000
      8       9.3217      0.00000
      9       9.6704      0.00000
     10      10.3165      0.00000
     11      10.8925      0.00000
     12      10.9214      0.00000
     13      11.7772      0.00000
     14      12.7096      0.00000
     15      13.2306      0.00000
     16      13.3555      0.00000

 k-point    42 :       0.4368    0.1264    0.0000
  band No.  band energies     occupation 
      1     -16.2856      2.00000
      2     -15.2539      2.00000
      3      -9.7930      2.00000
      4      -4.2607      2.00000
      5      -0.6674      0.00000
      6       6.7270      0.00000
      7       9.2079      0.00000
      8       9.3826      0.00000
      9       9.6271      0.00000
     10      10.3843      0.00000
     11      10.9577      0.00000
     12      10.9878      0.00000
     13      11.7594      0.00000
     14      12.7772      0.00000
     15      13.2731      0.00000
     16      13.4129      0.00000

 k-point    43 :       0.4310    0.1379    0.0000
  band No.  band energies     occupation 
      1     -16.2394      2.00000
      2     -15.2106      2.00000
      3      -9.9797      2.00000
      4      -4.1951      2.00000
      5      -0.6947      0.00000
      6       6.9942      0.00000
      7       9.2692      0.00000
      8       9.4491      0.00000
      9       9.5719      0.00000
     10      10.4584      0.00000
     11      11.0289      0.00000
     12      11.0605      0.00000
     13      11.7481      0.00000
     14      12.8512      0.00000
     15      13.3179      0.00000
     16      13.4752      0.00000

 k-point    44 :       0.4253    0.1494    0.0000
  band No.  band energies     occupation 
      1     -16.1893      2.00000
      2     -15.1644      2.00000
      3     -10.1746      2.00000
      4      -4.1241      2.00000
      5      -0.7268      0.00000
      6       7.2741      0.00000
      7       9.3351      0.00000
      8       9.5047      0.00000
      9       9.5208      0.00000
     10      10.5390      0.00000
     11      11.1062      0.00000
     12      11.1394      0.00000
     13      11.7459      0.00000
     14      12.9315      0.00000
     15      13.3636      0.00000
     16      13.5419      0.00000

 k-point    45 :       0.4195    0.1609    0.0000
  band No.  band energies     occupation 
      1     -16.1351      2.00000
      2     -15.1154      2.00000
      3     -10.3759      2.00000
      4      -4.0475      2.00000
      5      -0.7651      0.00000
      6       7.5646      0.00000
      7       9.4056      0.00000
      8       9.4256      0.00000
      9       9.5979      0.00000
     10      10.6259      0.00000
     11      11.1893      0.00000
     12      11.2245      0.00000
     13      11.7550      0.00000
     14      13.0183      0.00000
     15      13.4098      0.00000
     16      13.6128      0.00000

 k-point    46 :       0.4138    0.1724    0.0000
  band No.  band energies     occupation 
      1     -16.0769      2.00000
      2     -15.0638      2.00000
      3     -10.5820      2.00000
      4      -3.9652      2.00000
      5      -0.8082      0.00000
      6       7.8652      0.00000
      7       9.3373      0.00000
      8       9.4805      0.00000
      9       9.6804      0.00000
     10      10.7193      0.00000
     11      11.2784      0.00000
     12      11.3157      0.00000
     13      11.7770      0.00000
     14      13.1115      0.00000
     15      13.4557      0.00000
     16      13.6879      0.00000

 k-point    47 :       0.4080    0.1839    0.0000
  band No.  band energies     occupation 
      1     -16.0147      2.00000
      2     -15.0102      2.00000
      3     -10.7916      2.00000
      4      -3.8773      2.00000
      5      -0.8574      0.00000
      6       8.1733      0.00000
      7       9.2416      0.00000
      8       9.5594      0.00000
      9       9.7682      0.00000
     10      10.8192      0.00000
     11      11.3731      0.00000
     12      11.4131      0.00000
     13      11.8122      0.00000
     14      13.2111      0.00000
     15      13.5000      0.00000
     16      13.7666      0.00000

 k-point    48 :       0.4023    0.1954    0.0000
  band No.  band energies     occupation 
      1     -15.9485      2.00000
      2     -14.9550      2.00000
      3     -11.0036      2.00000
      4      -3.7842      2.00000
      5      -0.9140      0.00000
      6       8.4851      0.00000
      7       9.1409      0.00000
      8       9.6419      0.00000
      9       9.8613      0.00000
     10      10.9253      0.00000
     11      11.4735      0.00000
     12      11.5165      0.00000
     13      11.8606      0.00000
     14      13.3170      0.00000
     15      13.5416      0.00000
     16      13.8484      0.00000

 k-point    49 :       0.3965    0.2069    0.0000
  band No.  band energies     occupation 
      1     -15.8783      2.00000
      2     -14.8991      2.00000
      3     -11.2161      2.00000
      4      -3.6852      2.00000
      5      -0.9775      0.00000
      6       8.7994      0.00000
      7       9.0384      0.00000
      8       9.7279      0.00000
      9       9.9597      0.00000
     10      11.0380      0.00000
     11      11.5793      0.00000
     12      11.6259      0.00000
     13      11.9218      0.00000
     14      13.4294      0.00000
     15      13.5800      0.00000
     16      13.9324      0.00000

 k-point    50 :       0.3908    0.2184    0.0000
  band No.  band energies     occupation 
      1     -15.8042      2.00000
      2     -14.8432      2.00000
      3     -11.4276      2.00000
      4      -3.5808      2.00000
      5      -1.0492      0.00000
      6       8.9370      0.00000
      7       9.1108      0.00000
      8       9.8167      0.00000
      9      10.0643      0.00000
     10      11.1570      0.00000
     11      11.6903      0.00000
     12      11.7413      0.00000
     13      11.9948      0.00000
     14      13.5481      0.00000
     15      13.6136      0.00000
     16      14.0181      0.00000

 k-point    51 :       0.3851    0.2299    0.0000
  band No.  band energies     occupation 
      1     -15.7260      2.00000
      2     -14.7885      2.00000
      3     -11.6361      2.00000
      4      -3.4708      2.00000
      5      -1.1297      0.00000
      6       8.8391      0.00000
      7       9.4147      0.00000
      8       9.9079      0.00000
      9      10.1763      0.00000
     10      11.2825      0.00000
     11      11.8064      0.00000
     12      11.8626      0.00000
     13      12.0786      0.00000
     14      13.6431      0.00000
     15      13.6733      0.00000
     16      14.1041      0.00000

 k-point    52 :       0.3793    0.2414    0.0000
  band No.  band energies     occupation 
      1     -15.6440      2.00000
      2     -14.7368      2.00000
      3     -11.8394      2.00000
      4      -3.3548      2.00000
      5      -1.2179      0.00000
      6       8.7473      0.00000
      7       9.7038      0.00000
      8      10.0009      0.00000
      9      10.2984      0.00000
     10      11.4144      0.00000
     11      11.9271      0.00000
     12      11.9897      0.00000
     13      12.1722      0.00000
     14      13.6677      0.00000
     15      13.8049      0.00000
     16      14.1879      0.00000

 k-point    53 :       0.3736    0.2529    0.0000
  band No.  band energies     occupation 
      1     -15.5580      2.00000
      2     -14.6904      2.00000
      3     -12.0347      2.00000
      4      -3.2342      2.00000
      5      -1.3153      0.00000
      6       8.6633      0.00000
      7       9.9646      0.00000
      8      10.0945      0.00000
      9      10.4365      0.00000
     10      11.5526      0.00000
     11      12.0519      0.00000
     12      12.1223      0.00000
     13      12.2743      0.00000
     14      13.6886      0.00000
     15      13.9427      0.00000
     16      14.2644      0.00000

 k-point    54 :       0.3678    0.2644    0.0000
  band No.  band energies     occupation 
      1     -15.4680      2.00000
      2     -14.6521      2.00000
      3     -12.2184      2.00000
      4      -3.1078      2.00000
      5      -1.4214      0.00000
      6       8.5888      0.00000
      7      10.1860      0.00000
      8      10.1880      0.00000
      9      10.5973      0.00000
     10      11.6972      0.00000
     11      12.1804      0.00000
     12      12.2603      0.00000
     13      12.3833      0.00000
     14      13.7072      0.00000
     15      14.0870      0.00000
     16      14.3119      0.00000

 k-point    55 :       0.3621    0.2759    0.0000
  band No.  band energies     occupation 
      1     -15.3740      2.00000
      2     -14.6261      2.00000
      3     -12.3861      2.00000
      4      -2.9770      2.00000
      5      -1.5368      0.00000
      6       8.5248      0.00000
      7      10.2805      0.00000
      8      10.3583      0.00000
      9      10.7774      0.00000
     10      11.8480      0.00000
     11      12.3119      0.00000
     12      12.4029      0.00000
     13      12.4969      0.00000
     14      13.7275      0.00000
     15      14.2329      0.00000
     16      14.2373      0.00000

 k-point    56 :       0.3563    0.2874    0.0000
  band No.  band energies     occupation 
      1     -15.2761      2.00000
      2     -14.6174      2.00000
      3     -12.5326      2.00000
      4      -2.8401      2.00000
      5      -1.6613      0.00000
      6       8.4722      0.00000
      7      10.3707      0.00000
      8      10.4903      0.00000
      9      10.9547      0.00000
     10      12.0053      0.00000
     11      12.4454      0.00000
     12      12.5491      0.00000
     13      12.6114      0.00000
     14      13.7515      0.00000
     15      13.9947      0.00000
     16      14.2907      0.00000

 k-point    57 :       0.3506    0.2988    0.0000
  band No.  band energies     occupation 
      1     -15.1743      2.00000
      2     -14.6312      2.00000
      3     -12.6518      2.00000
      4      -2.6979      2.00000
      5      -1.7928      0.00000
      6       8.4316      0.00000
      7      10.4569      0.00000
      8      10.5928      0.00000
      9      11.1043      0.00000
     10      12.1690      0.00000
     11      12.5800      0.00000
     12      12.6963      0.00000
     13      12.7194      0.00000
     14      13.7432      0.00000
     15      13.7828      0.00000
     16      14.0576      0.00000

 k-point    58 :       0.3448    0.3103    0.0000
  band No.  band energies     occupation 
      1     -15.0687      2.00000
      2     -14.6725      2.00000
      3     -12.7390      2.00000
      4      -2.5504      2.00000
      5      -1.9340      0.00000
      6       8.4030      0.00000
      7      10.5372      0.00000
      8      10.6653      0.00000
      9      11.2060      0.00000
     10      12.3390      0.00000
     11      12.7142      0.00000
     12      12.8025      0.00000
     13      12.8393      0.00000
     14      13.5177      0.00000
     15      13.8106      0.00000
     16      13.8252      0.00000

 k-point    59 :       0.3391    0.3218    0.0000
  band No.  band energies     occupation 
      1     -14.9591      2.00000
      2     -14.7441      2.00000
      3     -12.7907      2.00000
      4      -2.3978      2.00000
      5      -2.0826      0.00000
      6       8.3863      0.00000
      7      10.6103      0.00000
      8      10.6987      0.00000
      9      11.2555      0.00000
     10      12.5153      0.00000
     11      12.8159      0.00000
     12      12.8472      0.00000
     13      12.9643      0.00000
     14      13.3181      0.00000
     15      13.6187      0.00000
     16      13.8829      0.00000

 k-point    60 :       0.3333    0.3333    0.0000
  band No.  band energies     occupation 
      1     -14.8456      2.00000
      2     -14.8455      2.00000
      3     -12.8074      2.00000
      4      -2.2393      1.01191
      5      -2.2391      0.98809
      6       8.3809      0.00000
      7      10.6746      0.00000
      8      10.6747      0.00000
      9      11.2664      0.00000
     10      12.6975      0.00000
     11      12.6988      0.00000
     12      12.9757      0.00000
     13      12.9815      0.00000
     14      13.1994      0.00000
     15      13.5527      0.00000
     16      13.9578      0.00000

 k-point    61 :       0.3333    0.3333    0.0000
  band No.  band energies     occupation 
      1     -14.8456      2.00000
      2     -14.8455      2.00000
      3     -12.8074      2.00000
      4      -2.2393      1.01191
      5      -2.2391      0.98809
      6       8.3809      0.00000
      7      10.6746      0.00000
      8      10.6747      0.00000
      9      11.2664      0.00000
     10      12.6975      0.00000
     11      12.6988      0.00000
     12      12.9757      0.00000
     13      12.9815      0.00000
     14      13.1994      0.00000
     15      13.5527      0.00000
     16      13.9575      0.00000

 k-point    62 :       0.3218    0.3218    0.0000
  band No.  band energies     occupation 
      1     -15.1229      2.00000
      2     -14.6070      2.00000
      3     -12.7498      2.00000
      4      -2.5737      2.00000
      5      -1.9094      0.00000
      6       8.4001      0.00000
      7      10.4110      0.00000
      8      10.7700      0.00000
[...]
      1     -18.4700      2.00000
      2     -11.7981      2.00000
      3     -10.2765      2.00000
      4      -6.0463      2.00000
      5       1.8801      0.00000
      6       5.5865      0.00000
      7       6.4476      0.00000
      8       7.1025      0.00000
      9       8.7234      0.00000
     10       9.0890      0.00000
     11       9.7384      0.00000
     12      10.0425      0.00000
     13      11.5556      0.00000
     14      13.7801      0.00000
     15      13.8291      0.00000
     16      16.5540      0.00000

 k-point    72 :       0.2069    0.2069    0.0000
  band No.  band energies     occupation 
      1     -18.8001      2.00000
      2     -11.4188      2.00000
      3      -9.9233      2.00000
      4      -6.4131      2.00000
      5       2.3734      0.00000
      6       5.1209      0.00000
      7       6.0005      0.00000
      8       6.6238      0.00000
      9       8.3101      0.00000
     10       8.7586      0.00000
     11       9.2846      0.00000
     12       9.8919      0.00000
     13      11.5272      0.00000
     14      13.3830      0.00000
     15      13.7614      0.00000
     16      16.6629      0.00000

 k-point    73 :       0.1954    0.1954    0.0000
  band No.  band energies     occupation 
      1     -19.1148      2.00000
      2     -11.0282      2.00000
      3      -9.5645      2.00000
      4      -6.7664      2.00000
      5       2.8758      0.00000
      6       4.6792      0.00000
      7       5.5702      0.00000
      8       6.1705      0.00000
      9       7.9011      0.00000
     10       8.4341      0.00000
     11       8.8607      0.00000
     12       9.7379      0.00000
     13      11.3717      0.00000
     14      12.9562      0.00000
     15      13.9276      0.00000
     16      16.4528      0.00000

 k-point    74 :       0.1839    0.1839    0.0000
  band No.  band energies     occupation 
      1     -19.4134      2.00000
      2     -10.6272      2.00000
      3      -9.2023      2.00000
      4      -7.1051      2.00000
      5       3.3858      0.00000
      6       4.2617      0.00000
      7       5.1599      0.00000
      8       5.7429      0.00000
      9       7.5051      0.00000
     10       8.1138      0.00000
     11       8.4709      0.00000
     12       9.5802      0.00000
     13      11.1268      0.00000
     14      12.5504      0.00000
     15      14.2116      0.00000
     16      16.0173      0.00000

 k-point    75 :       0.1724    0.1724    0.0000
  band No.  band energies     occupation 
      1     -19.6955      2.00000
      2     -10.2175      2.00000
      3      -8.8391      2.00000
      4      -7.4278      2.00000
      5       3.8688      0.00000
      6       3.8990      0.00000
      7       4.7714      0.00000
      8       5.3410      0.00000
      9       7.1267      0.00000
     10       7.7944      0.00000
     11       8.1193      0.00000
     12       9.4178      0.00000
     13      10.8397      0.00000
     14      12.1668      0.00000
     15      14.5249      0.00000
     16      15.4609      0.00000

 k-point    76 :       0.1609    0.1609    0.0000
  band No.  band energies     occupation 
      1     -19.9606      2.00000
      2      -9.7994      2.00000
      3      -8.4766      2.00000
      4      -7.7329      2.00000
      5       3.5008      0.00000
      6       4.4059      0.00000
      7       4.4166      0.00000
      8       4.9649      0.00000
      9       6.7687      0.00000
     10       7.4793      0.00000
     11       7.8093      0.00000
     12       9.2498      0.00000
     13      10.5403      0.00000
     14      11.8064      0.00000
     15      14.7768      0.00000
     16      14.8690      0.00000

 k-point    77 :       0.1494    0.1494    0.0000
  band No.  band energies     occupation 
      1     -20.2086      2.00000
      2      -9.3756      2.00000
      3      -8.1192      2.00000
      4      -8.0206      2.00000
      5       3.1576      0.00000
      6       4.0640      0.00000
      7       4.6147      0.00000
      8       4.9301      0.00000
      9       6.4326      0.00000
     10       7.1694      0.00000
     11       7.5353      0.00000
     12       9.0727      0.00000
     13      10.2435      0.00000
     14      11.4694      0.00000
     15      14.2575      0.00000
     16      14.8909      0.00000

 k-point    78 :       0.1379    0.1379    0.0000
  band No.  band energies     occupation 
      1     -20.4390      2.00000
      2      -8.9476      2.00000
      3      -8.2890      2.00000
      4      -7.7678      2.00000
      5       2.8396      0.00000
      6       3.7465      0.00000
      7       4.2903      0.00000
      8       5.4412      0.00000
      9       6.1195      0.00000
     10       6.8734      0.00000
     11       7.2949      0.00000
     12       8.8826      0.00000
     13       9.9586      0.00000
     14      11.1564      0.00000
     15      13.6598      0.00000
     16      14.8626      0.00000

 k-point    79 :       0.1264    0.1264    0.0000
  band No.  band energies     occupation 
      1     -20.6516      2.00000
      2      -8.5378      2.00000
      3      -8.5184      2.00000
      4      -7.4260      2.00000
      5       2.5469      0.00000
      6       3.4537      0.00000
      7       3.9919      0.00000
      8       5.8302      0.00000
      9       5.9425      0.00000
     10       6.5953      0.00000
     11       7.0822      0.00000
     12       8.6761      0.00000
     13       9.6902      0.00000
     14      10.8675      0.00000
     15      13.0820      0.00000
     16      14.7445      0.00000

 k-point    80 :       0.1149    0.1149    0.0000
  band No.  band energies     occupation 
      1     -20.8463      2.00000
      2      -8.7668      2.00000
      3      -8.0917      2.00000
      4      -7.0976      2.00000
      5       2.2794      0.00000
      6       3.1856      0.00000
      7       3.7194      0.00000
      8       5.5651      0.00000
      9       6.3382      0.00000
     10       6.4242      0.00000
     11       6.8930      0.00000
     12       8.4476      0.00000
     13       9.4408      0.00000
     14      10.6029      0.00000
     15      12.5455      0.00000
     16      14.5853      0.00000

 k-point    81 :       0.1034    0.1034    0.0000
  band No.  band energies     occupation 
      1     -21.0229      2.00000
      2      -8.9750      2.00000
      3      -7.6698      2.00000
      4      -6.7853      2.00000
      5       2.0373      0.00000
      6       2.9428      0.00000
      7       3.4728      0.00000
      8       5.3246      0.00000
      9       6.1041      0.00000
     10       6.7296      0.00000
     11       6.8900      0.00000
     12       8.1974      0.00000
     13       9.2126      0.00000
     14      10.3629      0.00000
     15      12.0641      0.00000
     16      14.4144      0.00000

 k-point    82 :       0.0920    0.0920    0.0000
  band No.  band energies     occupation 
      1     -21.1812      2.00000
      2      -9.1621      2.00000
      3      -7.2591      2.00000
      4      -6.4933      2.00000
      5       1.8206      0.00000
      6       2.7252      0.00000
      7       3.2522      0.00000
      8       5.1090      0.00000
      9       5.8937      0.00000
     10       6.5889      0.00000
     11       7.3307      0.00000
     12       7.9203      0.00000
     13       9.0068      0.00000
     14      10.1475      0.00000
     15      11.6395      0.00000
     16      14.2470      0.00000

 k-point    83 :       0.0805    0.0805    0.0000
  band No.  band energies     occupation 
      1     -21.3212      2.00000
      2      -9.3281      2.00000
      3      -6.8639      2.00000
      4      -6.2252      2.00000
      5       1.6294      0.00000
      6       2.5331      0.00000
      7       3.0576      0.00000
      8       4.9184      0.00000
      9       5.7075      0.00000
     10       6.4682      0.00000
     11       7.6212      0.00000
     12       7.7410      0.00000
     13       8.8238      0.00000
     14       9.9569      0.00000
     15      11.2832      0.00000
     16      14.0908      0.00000

 k-point    84 :       0.0690    0.0690    0.0000
  band No.  band energies     occupation 
      1     -21.4427      2.00000
      2      -9.4725      2.00000
      3      -6.4925      2.00000
      4      -5.9843      2.00000
      5       1.4637      0.00000
      6       2.3663      0.00000
      7       2.8889      0.00000
      8       4.7529      0.00000
      9       5.5459      0.00000
     10       6.3677      0.00000
     11       7.3102      0.00000
     12       8.1108      0.00000
     13       8.6644      0.00000
     14       9.7912      0.00000
     15      10.9911      0.00000
     16      13.9505      0.00000

 k-point    85 :       0.0575    0.0575    0.0000
  band No.  band energies     occupation 
      1     -21.5456      2.00000
      2      -9.5955      2.00000
      3      -6.1542      2.00000
      4      -5.7738      2.00000
      5       1.3235      0.00000
      6       2.2250      0.00000
      7       2.7462      0.00000
      8       4.6127      0.00000
      9       5.4090      0.00000
     10       6.2862      0.00000
     11       7.0042      0.00000
     12       8.4376      0.00000
     13       8.5288      0.00000
     14       9.6506      0.00000
     15      10.7595      0.00000
     16      13.8286      0.00000

 k-point    86 :       0.0460    0.0460    0.0000
  band No.  band energies     occupation 
      1     -21.6299      2.00000
      2      -9.6959      2.00000
      3      -5.8566      2.00000
      4      -5.5967      2.00000
      5       1.2088      0.00000
      6       2.1095      0.00000
      7       2.6294      0.00000
      8       4.4979      0.00000
      9       5.2969      0.00000
     10       6.2237      0.00000
     11       6.7180      0.00000
     12       8.4178      0.00000
     13       8.7157      0.00000
     14       9.5352      0.00000
     15      10.5829      0.00000
     16      13.7277      0.00000

 k-point    87 :       0.0345    0.0345    0.0000
  band No.  band energies     occupation 
      1     -21.6955      2.00000
      2      -9.7741      2.00000
      3      -5.6100      2.00000
      4      -5.4559      2.00000
      5       1.1196      0.00000
      6       2.0196      0.00000
      7       2.5386      0.00000
      8       4.4086      0.00000
      9       5.2098      0.00000
     10       6.1782      0.00000
     11       6.4738      0.00000
     12       8.3313      0.00000
     13       8.9386      0.00000
     14       9.4453      0.00000
     15      10.4539      0.00000
     16      13.6485      0.00000

 k-point    88 :       0.0230    0.0230    0.0000
  band No.  band energies     occupation 
      1     -21.7424      2.00000
      2      -9.8302      2.00000
      3      -5.4249      2.00000
      4      -5.3530      2.00000
      5       1.0559      0.00000
      6       1.9553      0.00000
      7       2.4738      0.00000
      8       4.3448      0.00000
      9       5.1475      0.00000
     10       6.1467      0.00000
     11       6.2840      0.00000
     12       8.2693      0.00000
     13       9.1034      0.00000
     14       9.3809      0.00000
     15      10.3663      0.00000
     16      13.5912      0.00000

 k-point    89 :       0.0115    0.0115    0.0000
  band No.  band energies     occupation 
      1     -21.7706      2.00000
      2      -9.8639      2.00000
      3      -5.3092      2.00000
      4      -5.2905      2.00000
      5       1.0176      0.00000
      6       1.9167      0.00000
      7       2.4349      0.00000
      8       4.3065      0.00000
      9       5.1102      0.00000
     10       6.1277      0.00000
     11       6.1624      0.00000
     12       8.2321      0.00000
     13       9.2047      0.00000
     14       9.3422      0.00000
     15      10.3155      0.00000
     16      13.5568      0.00000

 k-point    90 :       0.0000    0.0000    0.0000
  band No.  band energies     occupation 
      1     -21.7799      2.00000
      2      -9.8751      2.00000
      3      -5.2698      2.00000
      4      -5.2697      2.00000
      5       1.0049      0.00000
      6       1.9039      0.00000
      7       2.4219      0.00000
      8       4.2937      0.00000
      9       5.0977      0.00000
     10       6.1192      0.00000
     11       6.1192      0.00000
     12       8.2197      0.00000
     13       9.2375      0.00000
     14       9.3293      0.00000
     15      10.2989      0.00000
     16      13.5452      0.00000


--------------------------------------------------------------------------------------------------------


 soft charge-density along one line, spin component           1
         0         1         2         3         4         5         6         7         8         9
 total charge-density along one line

 pseudopotential strength for first ion, spin component:           1
 10.187  13.546   0.000   0.000  -0.000  -0.000  -0.000   0.000
 13.546  18.012   0.000   0.000  -0.000  -0.000  -0.000   0.000
  0.000   0.000  -4.322   0.000   0.000   8.454  -0.000  -0.000
  0.000   0.000   0.000  -4.315  -0.000  -0.000   8.445   0.000
 -0.000  -0.000   0.000  -0.000  -4.322  -0.000   0.000   8.454
 -0.000  -0.000   8.454  -0.000  -0.000 -18.672   0.000   0.000
 -0.000  -0.000  -0.000   8.445   0.000   0.000 -18.664  -0.000
  0.000   0.000  -0.000   0.000   8.454   0.000  -0.000 -18.672
 total augmentation occupancy for first ion, spin component:           1
  2.000   0.000   0.000   0.000   0.000   0.000   0.000   0.000
  0.000   0.000   0.000   0.000   0.000   0.000   0.000   0.000
  0.000   0.000   0.667   0.000   0.000   0.000   0.000   0.000
  0.000   0.000   0.000   0.667   0.000   0.000   0.000   0.000
  0.000   0.000   0.000   0.000   0.667   0.000   0.000   0.000
  0.000   0.000   0.000   0.000   0.000   0.000   0.000   0.000
  0.000   0.000   0.000   0.000   0.000   0.000   0.000   0.000
  0.000   0.000   0.000   0.000   0.000   0.000   0.000   0.000


------------------------ aborting loop because EDIFF is reached ----------------------------------------





 total charge     

# of ion       s       p       d       tot
------------------------------------------
    1        0.856   1.818   0.000   2.673
    2        0.856   1.818   0.000   2.673
--------------------------------------------------
tot          1.711   3.635   0.000   5.346

    CHARGE:  cpu time    0.0989: real time    0.0998
    FORLOC:  cpu time    0.0019: real time    0.0019
    FORNL :  cpu time    0.1861: real time    0.1863
    STRESS:  cpu time    0.7936: real time    0.7943
    FORCOR:  cpu time    0.0426: real time    0.0427
    FORHAR:  cpu time    0.0116: real time    0.0116
    OFIELD:  cpu time    0.0001: real time    0.0001

  FORCE on cell =-STRESS in cart. coord.  units (eV):
  Direction    XX          YY          ZZ          XY          YZ          ZX
  --------------------------------------------------------------------------------------
  Alpha Z     4.16580     4.16580     4.16580
  Ewald    1107.38914  1107.38883 -1376.46487    -0.00026    -0.00000    -0.00000
  Hartree  1080.38034  1080.38034 -1068.67169    -0.00000     0.00000    -0.00000
  E(xc)     -29.72195   -29.72195   -30.83588    -0.00000    -0.00000     0.00000
  Local   -2274.45726 -2274.45713  2341.97946     0.00011    -0.00000     0.00000
  n-local    -7.93906    -8.16652    -7.39908    -0.11507     0.00000     0.00000
  augment    -0.81771    -0.81768    -0.75163     0.00002    -0.00000     0.00000
  Kinetic   122.77917   122.49892   138.48991     3.09441     0.00000    -0.00000
  Fock        0.00000     0.00000     0.00000     0.00000     0.00000     0.00000
  -------------------------------------------------------------------------------------
  Total       1.52454     1.52454     0.51202     0.00000     0.00000     0.00000
  in kB      30.96681    30.96681    10.40028     0.00000     0.00000     0.00000
  external pressure =       24.11 kB  Pullay stress =        0.00 kB


 VOLUME and BASIS-vectors are now :
 -----------------------------------------------------------------------------
  energy-cutoff  :      400.00
  volume of cell :       78.88
      direct lattice vectors                 reciprocal lattice vectors
     2.464138279  0.000000000  0.000000000     0.405821381  0.234301084 -0.000000000
    -1.232069139  2.134006348  0.000000000     0.000000000  0.468602167  0.000000000
     0.000000000  0.000000000 15.000000000     0.000000000 -0.000000000  0.066666667

  length of vectors
     2.464138279  2.464138279 15.000000000     0.468602167  0.468602167  0.066666667


 FORCES acting on ions
    electron-ion (+dipol)            ewald-force                    non-local-force                 convergence-correction
 -----------------------------------------------------------------------------------------------
   -.791E-06 0.388E-06 0.400E-04   0.212E-03 -.125E-03 0.148E-20   0.111E-15 -.278E-16 -.102E-19   0.128E-05 -.287E-06 -.256E-02
   -.218E-03 0.129E-03 0.357E-04   -.212E-03 0.125E-03 -.148E-20   -.139E-16 -.278E-16 0.339E-20   -.187E-05 0.228E-06 -.256E-02
 -----------------------------------------------------------------------------------------------
   -.219E-03 0.129E-03 0.757E-04   0.418E-14 -.807E-15 0.000E+00   0.971E-16 -.555E-16 -.678E-20   -.592E-06 -.591E-07 -.512E-02


 POSITION                                       TOTAL-FORCE (eV/Angst)
 -----------------------------------------------------------------------------------
      0.00000      0.00000      2.17126        -0.000000      0.000000     -0.000000
      1.23207      0.71133      2.17126         0.000000     -0.000000      0.000000
 -----------------------------------------------------------------------------------
    total drift:                               -0.000219      0.000129     -0.005045


--------------------------------------------------------------------------------------------------------



  FREE ENERGIE OF THE ION-ELECTRON SYSTEM (eV)
  ---------------------------------------------------
  free  energy   TOTEN  =       -17.33657895 eV

  energy  without entropy=      -17.33632822  energy(sigma->0) =      -17.33645359



--------------------------------------------------------------------------------------------------------


    POTLOK:  cpu time    0.0406: real time    0.0407


--------------------------------------------------------------------------------------------------------


     LOOP+:  cpu time   24.0291: real time   24.4130
    4ORBIT:  cpu time    0.0000: real time    0.0000



 total charge     

# of ion       s       p       d       tot
------------------------------------------
    1        0.856   1.818   0.000   2.673
    2        0.856   1.818   0.000   2.673
--------------------------------------------------
tot          1.711   3.635   0.000   5.346


 total amount of memory used by VASP MPI-rank0    64713. kBytes
=======================================================================

   base      :      30000. kBytes
   nonl-proj :       8421. kBytes
   fftplans  :       3495. kBytes
   grid      :       5857. kBytes
   one-center:          6. kBytes
   wavefun   :      16934. kBytes

  
  
 General timing and accounting informations for this job:
 ========================================================
  
                  Total CPU time used (sec):       25.182
                            User time (sec):       24.956
                          System time (sec):        0.225
                         Elapsed time (sec):       25.595
  
                   Maximum memory used (kb):    65527808.
                   Average memory used (kb):           0.
  
                          Minor page faults:        16988
                          Major page faults:          114
                 Voluntary context switches:           33
