PROCAR lm decomposed
# of k-points:   90         # of bands:   16         # of ions:    2

 k-point     1 :    0.00000000 0.00000000 0.00000000     weight = 0.01111111

band     1 # energy  -21.77994950 # occ.  2.00000000

ion      s     py     pz     px    dxy    dyz    dz2    dxz  x2-y2    tot
    1  0.323  0.000  0.000  0.000  0.000  0.000  0.000  0.000  0.000  0.323
    2  0.323  0.000  0.000  0.000  0.000  0.000  0.000  0.000  0.000  0.323
tot    0.646  0.000  0.000  0.000  0.000  0.000  0.000  0.000  0.000  0.646

band     2 # energy   -9.87514462 # occ.  2.00000000

ion      s     py     pz     px    dxy    dyz    dz2    dxz  x2-y2    tot
    1  0.000  0.000  0.216  0.000  0.000  0.000  0.000  0.000  0.000  0.216
    2  0.000  0.000  0.216  0.000  0.000  0.000  0.000  0.000  0.000  0.216
tot    0.000  0.000  0.432  0.000  0.000  0.000  0.000  0.000  0.000  0.432

band     3 # energy   -5.26980055 # occ.  2.00000000

ion      s     py     pz     px    dxy    dyz    dz2    dxz  x2-y2    tot
    1  0.000  0.102  0.000  0.312  0.000  0.000  0.000  0.000  0.000  0.414
    2  0.000  0.102  0.000  0.312  0.000  0.000  0.000  0.000  0.000  0.414
tot    0.000  0.204  0.000  0.623  0.000  0.000  0.000  0.000  0.000  0.827

band     4 # energy   -5.26974369 # occ.  2.00000000

ion      s     py     pz     px    dxy    dyz    dz2    dxz  x2-y2    tot
    1  0.000  0.312  0.000  0.102  0.000  0.000  0.000  0.000  0.000  0.414
    2  0.000  0.312  0.000  0.102  0.000  0.000  0.000  0.000  0.000  0.414
tot    0.000  0.623  0.000  0.204  0.000  0.000  0.000  0.000  0.000  0.827

band     5 # energy    1.00488849 # occ.  0.00000000

ion      s     py     pz     px    dxy    dyz    dz2    dxz  x2-y2    tot
    1  0.010  0.000  0.000  0.000  0.000  0.000  0.000  0.000  0.000  0.010
    2  0.010  0.000  0.000  0.000  0.000  0.000  0.000  0.000  0.000  0.010
tot    0.019  0.000  0.000  0.000  0.000  0.000  0.000  0.000  0.000  0.019

band     6 # energy    1.90388515 # occ.  0.00000000

ion      s     py     pz     px    dxy    dyz    dz2    dxz  x2-y2    tot
    1  0.000  0.000  0.014  0.000  0.000  0.000  0.000  0.000  0.000  0.014
    2  0.000  0.000  0.014  0.000  0.000  0.000  0.000  0.000  0.000  0.014
tot    0.000  0.000  0.028  0.000  0.000  0.000  0.000  0.000  0.000  0.028

band     7 # energy    2.42192643 # occ.  0.00000000

ion      s     py     pz     px    dxy    dyz    dz2    dxz  x2-y2    tot
    1  0.003  0.000  0.000  0.000  0.000  0.000  0.000  0.000  0.000  0.003
    2  0.003  0.000  0.000  0.000  0.000  0.000  0.000  0.000  0.000  0.003
tot    0.006  0.000  0.000  0.000  0.000  0.000  0.000  0.000  0.000  0.006

band     8 # energy    4.29369109 # occ.  0.00000000

ion      s     py     pz     px    dxy    dyz    dz2    dxz  x2-y2    tot
    1  0.000  0.000  0.016  0.000  0.000  0.000  0.000  0.000  0.000  0.016
    2  0.000  0.000  0.016  0.000  0.000  0.000  0.000  0.000  0.000  0.016
tot    0.000  0.000  0.031  0.000  0.000  0.000  0.000  0.000  0.000  0.031

band     9 # energy    5.09774471 # occ.  0.00000000

ion      s     py     pz     px    dxy    dyz    dz2    dxz  x2-y2    tot
    1  0.007  0.000  0.000  0.000  0.000  0.000  0.000  0.000  0.000  0.007
    2  0.007  0.000  0.000  0.000  0.000  0.000  0.000  0.000  0.000  0.007
tot    0.014  0.000  0.000  0.000  0.000  0.000  0.000  0.000  0.000  0.014

band    10 # energy    6.11915362 # occ.  0.00000000

ion      s     py     pz     px    dxy    dyz    dz2    dxz  x2-y2    tot
    1  0.000  0.198  0.000  0.065  0.000  0.000  0.000  0.000  0.000  0.263
    2  0.000  0.198  0.000  0.065  0.000  0.000  0.000  0.000  0.000  0.263
tot    0.000  0.397  0.000  0.130  0.000  0.000  0.000  0.000  0.000  0.527

band    11 # energy    6.11921939 # occ.  0.00000000

ion      s     py     pz     px    dxy    dyz    dz2    dxz  x2-y2    tot
    1  0.000  0.065  0.000  0.198  0.000  0.000  0.000  0.000  0.000  0.263
    2  0.000  0.065  0.000  0.198  0.000  0.000  0.000  0.000  0.000  0.263
tot    0.000  0.130  0.000  0.397  0.000  0.000  0.000  0.000  0.000  0.527

band    12 # energy    8.21972970 # occ.  0.00000000

ion      s     py     pz     px    dxy    dyz    dz2    dxz  x2-y2    tot
    1  0.000  0.000  0.024  0.000  0.000  0.000  0.000  0.000  0.000  0.024
    2  0.000  0.000  0.024  0.000  0.000  0.000  0.000  0.000  0.000  0.024
tot    0.000  0.000  0.049  0.000  0.000  0.000  0.000  0.000  0.000  0.049

band    13 # energy    9.23753280 # occ.  0.00000000

ion      s     py     pz     px    dxy    dyz    dz2    dxz  x2-y2    tot
    1  0.000  0.000  0.392  0.000  0.000  0.000  0.000  0.000  0.000  0.392
    2  0.000  0.000  0.392  0.000  0.000  0.000  0.000  0.000  0.000  0.392
tot    0.000  0.000  0.783  0.000  0.000  0.000  0.000  0.000  0.000  0.783

band    14 # energy    9.32926327 # occ.  0.00000000

ion      s     py     pz     px    dxy    dyz    dz2    dxz  x2-y2    tot
    1  0.008  0.000  0.000  0.000  0.000  0.000  0.000  0.000  0.000  0.008
    2  0.008  0.000  0.000  0.000  0.000  0.000  0.000  0.000  0.000  0.008
tot    0.017  0.000  0.000  0.000  0.000  0.000  0.000  0.000  0.000  0.017

band    15 # energy   10.29885263 # occ.  0.00000000

ion      s     py     pz     px    dxy    dyz    dz2    dxz  x2-y2    tot
    1  0.358  0.000  0.000  0.000  0.000  0.000  0.000  0.000  0.000  0.358
    2  0.358  0.000  0.000  0.000  0.000  0.000  0.000  0.000  0.000  0.358
tot    0.716  0.000  0.000  0.000  0.000  0.000  0.000  0.000  0.000  0.716

band    16 # energy   13.54523474 # occ.  0.00000000

ion      s     py     pz     px    dxy    dyz    dz2    dxz  x2-y2    tot
    1  0.000  0.000  0.032  0.000  0.000  0.000  0.000  0.000  0.000  0.032
    2  0.000  0.000  0.032  0.000  0.000  0.000  0.000  0.000  0.000  0.032
tot    0.000  0.000  0.064  0.000  0.000  0.000  0.000  0.000  0.000  0.064


 k-point     2 :    0.01724138 0.00000000 0.00000000     weight = 0.01111111

band     1 # energy  -21.77291058 # occ.  2.00000000

ion      s     py     pz     px    dxy    dyz    dz2    dxz  x2-y2    tot
    1  0.323  0.000  0.000  0.000  0.000  0.000  0.000  0.000  0.000  0.323
    2  0.323  0.000  0.000  0.000  0.000  0.000  0.000  0.000  0.000  0.323
tot    0.646  0.000  0.000  0.000  0.000  0.000  0.000  0.000  0.000  0.646

band     2 # energy   -9.86668752 # occ.  2.00000000

ion      s     py     pz     px    dxy    dyz    dz2    dxz  x2-y2    tot
    1  0.000  0.000  0.216  0.000  0.000  0.000  0.000  0.000  0.000  0.216
    2  0.000  0.000  0.216  0.000  0.000  0.000  0.000  0.000  0.000  0.216
tot    0.000  0.000  0.432  0.000  0.000  0.000  0.000  0.000  0.000  0.432

band     3 # energy   -5.29961094 # occ.  2.00000000

ion      s     py     pz     px    dxy    dyz    dz2    dxz  x2-y2    tot
    1  0.001  0.102  0.000  0.310  0.000  0.000  0.000  0.000  0.000  0.413
    2  0.001  0.102  0.000  0.310  0.000  0.000  0.000  0.000  0.000  0.413
tot    0.002  0.205  0.000  0.620  0.000  0.000  0.000  0.000  0.000  0.826

band     4 # energy   -5.28508554 # occ.  2.00000000

ion      s     py     pz     px    dxy    dyz    dz2    dxz  x2-y2    tot
    1  0.000  0.311  0.000  0.103  0.000  0.000  0.000  0.000  0.000  0.413
    2  0.000  0.311  0.000  0.103  0.000  0.000  0.000  0.000  0.000  0.413
tot    0.000  0.621  0.000  0.205  0.000  0.000  0.000  0.000  0.000  0.827

band     5 # energy    1.01444687 # occ.  0.00000000

ion      s     py     pz     px    dxy    dyz    dz2    dxz  x2-y2    tot
    1  0.009  0.000  0.000  0.000  0.000  0.000  0.000  0.000  0.000  0.010
    2  0.009  0.000  0.000  0.000  0.000  0.000  0.000  0.000  0.000  0.010
tot    0.019  0.000  0.000  0.000  0.000  0.000  0.000  0.000  0.000  0.019

band     6 # energy    1.91353645 # occ.  0.00000000

ion      s     py     pz     px    dxy    dyz    dz2    dxz  x2-y2    tot
    1  0.000  0.000  0.014  0.000  0.000  0.000  0.000  0.000  0.000  0.014
    2  0.000  0.000  0.014  0.000  0.000  0.000  0.000  0.000  0.000  0.014
tot    0.000  0.000  0.028  0.000  0.000  0.000  0.000  0.000  0.000  0.028

band     7 # energy    2.43165317 # occ.  0.00000000

ion      s     py     pz     px    dxy    dyz    dz2    dxz  x2-y2    tot
    1  0.003  0.000  0.000  0.000  0.000  0.000  0.000  0.000  0.000  0.003
    2  0.003  0.000  0.000  0.000  0.000  0.000  0.000  0.000  0.000  0.003
tot    0.006  0.000  0.000  0.000  0.000  0.000  0.000  0.000  0.000  0.006

band     8 # energy    4.30328443 # occ.  0.00000000

ion      s     py     pz     px    dxy    dyz    dz2    dxz  x2-y2    tot
    1  0.000  0.000  0.016  0.000  0.000  0.000  0.000  0.000  0.000  0.016
    2  0.000  0.000  0.016  0.000  0.000  0.000  0.000  0.000  0.000  0.016
tot    0.000  0.000  0.031  0.000  0.000  0.000  0.000  0.000  0.000  0.031

band     9 # energy    5.10708025 # occ.  0.00000000

ion      s     py     pz     px    dxy    dyz    dz2    dxz  x2-y2    tot
    1  0.007  0.000  0.000  0.000  0.000  0.000  0.000  0.000  0.000  0.007
    2  0.007  0.000  0.000  0.000  0.000  0.000  0.000  0.000  0.000  0.007
tot    0.014  0.000  0.000  0.000  0.000  0.000  0.000  0.000  0.000  0.014

band    10 # energy    6.12536427 # occ.  0.00000000

ion      s     py     pz     px    dxy    dyz    dz2    dxz  x2-y2    tot
    1  0.000  0.066  0.000  0.197  0.000  0.000  0.000  0.000  0.000  0.263
    2  0.000  0.066  0.000  0.197  0.000  0.000  0.000  0.000  0.000  0.263
tot    0.001  0.132  0.000  0.393  0.000  0.000  0.000  0.000  0.000  0.526

band    11 # energy    6.15094186 # occ.  0.00000000

ion      s     py     pz     px    dxy    dyz    dz2    dxz  x2-y2    tot
    1  0.000  0.197  0.000  0.066  0.000  0.000  0.000  0.000  0.000  0.264
    2  0.000  0.197  0.000  0.066  0.000  0.000  0.000  0.000  0.000  0.264
tot    0.000  0.395  0.000  0.132  0.000  0.000  0.000  0.000  0.000  0.527

band    12 # energy    8.22906341 # occ.  0.00000000

ion      s     py     pz     px    dxy    dyz    dz2    dxz  x2-y2    tot
    1  0.000  0.000  0.024  0.000  0.000  0.000  0.000  0.000  0.000  0.024
    2  0.000  0.000  0.024  0.000  0.000  0.000  0.000  0.000  0.000  0.024
tot    0.000  0.000  0.049  0.000  0.000  0.000  0.000  0.000  0.000  0.049

band    13 # energy    9.21428553 # occ.  0.00000000

ion      s     py     pz     px    dxy    dyz    dz2    dxz  x2-y2    tot
    1  0.000  0.000  0.391  0.000  0.000  0.000  0.000  0.000  0.000  0.391
    2  0.000  0.000  0.391  0.000  0.000  0.000  0.000  0.000  0.000  0.391
tot    0.000  0.000  0.782  0.000  0.000  0.000  0.000  0.000  0.000  0.782

band    14 # energy    9.33895855 # occ.  0.00000000

ion      s     py     pz     px    dxy    dyz    dz2    dxz  x2-y2    tot
    1  0.008  0.000  0.000  0.000  0.000  0.000  0.000  0.000  0.000  0.008
    2  0.008  0.000  0.000  0.000  0.000  0.000  0.000  0.000  0.000  0.008
tot    0.017  0.000  0.000  0.000  0.000  0.000  0.000  0.000  0.000  0.017

band    15 # energy   10.31142307 # occ.  0.00000000

ion      s     py     pz     px    dxy    dyz    dz2    dxz  x2-y2    tot
    1  0.357  0.000  0.000  0.001  0.000  0.000  0.000  0.000  0.000  0.358
    2  0.357  0.000  0.000  0.001  0.000  0.000  0.000  0.000  0.000  0.358
tot    0.714  0.001  0.000  0.002  0.000  0.000  0.000  0.000  0.000  0.716

band    16 # energy   13.55392377 # occ.  0.00000000

ion      s     py     pz     px    dxy    dyz    dz2    dxz  x2-y2    tot
    1  0.000  0.000  0.032  0.000  0.000  0.000  0.000  0.000  0.000  0.032
    2  0.000  0.000  0.032  0.000  0.000  0.000  0.000  0.000  0.000  0.032
tot    0.000  0.000  0.064  0.000  0.000  0.000  0.000  0.000  0.000  0.064


 k-point     3 :    0.03448276 0.00000000 0.00000000     weight = 0.01111111

band     1 # energy  -21.75179637 # occ.  2.00000000

ion      s     py     pz     px    dxy    dyz    dz2    dxz  x2-y2    tot
    1  0.323  0.000  0.000  0.000  0.000  0.000  0.000  0.000  0.000  0.323
    2  0.323  0.000  0.000  0.000  0.000  0.000  0.000  0.000  0.000  0.323
tot    0.645  0.000  0.000  0.001  0.000  0.000  0.000  0.000  0.000  0.647

band     2 # energy   -9.84146198 # occ.  2.00000000

ion      s     py     pz     px    dxy    dyz    dz2    dxz  x2-y2    tot
    1  0.000  0.000  0.216  0.000  0.000  0.000  0.000  0.000  0.000  0.216
    2  0.000  0.000  0.216  0.000  0.000  0.000  0.000  0.000  0.000  0.216
tot    0.000  0.000  0.432  0.000  0.000  0.000  0.000  0.000  0.000  0.432

band     3 # energy   -5.38733179 # occ.  2.00000000

ion      s     py     pz     px    dxy    dyz    dz2    dxz  x2-y2    tot
    1  0.003  0.102  0.000  0.307  0.000  0.000  0.000  0.000  0.000  0.412
    2  0.003  0.102  0.000  0.307  0.000  0.000  0.000  0.000  0.000  0.412
tot    0.007  0.204  0.000  0.614  0.000  0.000  0.000  0.000  0.000  0.825

band     4 # energy   -5.33160844 # occ.  2.00000000

ion      s     py     pz     px    dxy    dyz    dz2    dxz  x2-y2    tot
    1  0.000  0.310  0.000  0.103  0.000  0.000  0.000  0.000  0.000  0.413
    2  0.000  0.310  0.000  0.103  0.000  0.000  0.000  0.000  0.000  0.413
tot    0.000  0.619  0.000  0.206  0.000  0.000  0.000  0.000  0.000  0.825

band     5 # energy    1.04311670 # occ.  0.00000000

ion      s     py     pz     px    dxy    dyz    dz2    dxz  x2-y2    tot
    1  0.009  0.000  0.000  0.000  0.000  0.000  0.000  0.000  0.000  0.010
    2  0.009  0.000  0.000  0.000  0.000  0.000  0.000  0.000  0.000  0.010
tot    0.019  0.000  0.000  0.000  0.000  0.000  0.000  0.000  0.000  0.019

band     6 # energy    1.94245535 # occ.  0.00000000

ion      s     py     pz     px    dxy    dyz    dz2    dxz  x2-y2    tot
    1  0.000  0.000  0.014  0.000  0.000  0.000  0.000  0.000  0.000  0.014
    2  0.000  0.000  0.014  0.000  0.000  0.000  0.000  0.000  0.000  0.014
tot    0.000  0.000  0.028  0.000  0.000  0.000  0.000  0.000  0.000  0.028

band     7 # energy    2.46083299 # occ.  0.00000000

ion      s     py     pz     px    dxy    dyz    dz2    dxz  x2-y2    tot
    1  0.003  0.000  0.000  0.000  0.000  0.000  0.000  0.000  0.000  0.003
    2  0.003  0.000  0.000  0.000  0.000  0.000  0.000  0.000  0.000  0.003
tot    0.006  0.000  0.000  0.000  0.000  0.000  0.000  0.000  0.000  0.006

band     8 # energy    4.33201308 # occ.  0.00000000

ion      s     py     pz     px    dxy    dyz    dz2    dxz  x2-y2    tot
    1  0.000  0.000  0.016  0.000  0.000  0.000  0.000  0.000  0.000  0.016
    2  0.000  0.000  0.016  0.000  0.000  0.000  0.000  0.000  0.000  0.016
tot    0.000  0.000  0.031  0.000  0.000  0.000  0.000  0.000  0.000  0.031

band     9 # energy    5.13509596 # occ.  0.00000000

ion      s     py     pz     px    dxy    dyz    dz2    dxz  x2-y2    tot
    1  0.007  0.000  0.000  0.000  0.000  0.000  0.000  0.000  0.000  0.007
    2  0.007  0.000  0.000  0.000  0.000  0.000  0.000  0.000  0.000  0.007
tot    0.014  0.000  0.000  0.001  0.000  0.000  0.000  0.000  0.000  0.015

band    10 # energy    6.13972933 # occ.  0.00000000

ion      s     py     pz     px    dxy    dyz    dz2    dxz  x2-y2    tot
    1  0.002  0.065  0.000  0.195  0.000  0.000  0.000  0.000  0.000  0.262
    2  0.002  0.065  0.000  0.195  0.000  0.000  0.000  0.000  0.000  0.262
tot    0.004  0.130  0.000  0.390  0.000  0.000  0.000  0.000  0.000  0.524

band    11 # energy    6.24335023 # occ.  0.00000000

ion      s     py     pz     px    dxy    dyz    dz2    dxz  x2-y2    tot
    1  0.000  0.198  0.000  0.066  0.000  0.000  0.000  0.000  0.000  0.264
    2  0.000  0.198  0.000  0.066  0.000  0.000  0.000  0.000  0.000  0.264
tot    0.000  0.397  0.000  0.132  0.000  0.000  0.000  0.000  0.000  0.529

band    12 # energy    8.25695214 # occ.  0.00000000

ion      s     py     pz     px    dxy    dyz    dz2    dxz  x2-y2    tot
    1  0.000  0.000  0.024  0.000  0.000  0.000  0.000  0.000  0.000  0.024
    2  0.000  0.000  0.024  0.000  0.000  0.000  0.000  0.000  0.000  0.024
tot    0.000  0.000  0.049  0.000  0.000  0.000  0.000  0.000  0.000  0.049

band    13 # energy    9.13757910 # occ.  0.00000000

ion      s     py     pz     px    dxy    dyz    dz2    dxz  x2-y2    tot
    1  0.000  0.000  0.389  0.000  0.000  0.000  0.000  0.000  0.000  0.389
    2  0.000  0.000  0.389  0.000  0.000  0.000  0.000  0.000  0.000  0.389
tot    0.000  0.000  0.778  0.000  0.000  0.000  0.000  0.000  0.000  0.778

band    14 # energy    9.36799709 # occ.  0.00000000

ion      s     py     pz     px    dxy    dyz    dz2    dxz  x2-y2    tot
    1  0.009  0.000  0.000  0.000  0.000  0.000  0.000  0.000  0.000  0.009
    2  0.009  0.000  0.000  0.000  0.000  0.000  0.000  0.000  0.000  0.009
tot    0.017  0.000  0.000  0.000  0.000  0.000  0.000  0.000  0.000  0.017

band    15 # energy   10.34918538 # occ.  0.00000000

ion      s     py     pz     px    dxy    dyz    dz2    dxz  x2-y2    tot
    1  0.354  0.001  0.000  0.003  0.000  0.000  0.000  0.000  0.000  0.358
    2  0.354  0.001  0.000  0.003  0.000  0.000  0.000  0.000  0.000  0.358
tot    0.708  0.002  0.000  0.006  0.000  0.000  0.000  0.000  0.000  0.716

band    16 # energy   13.57975535 # occ.  0.00000000

ion      s     py     pz     px    dxy    dyz    dz2    dxz  x2-y2    tot
    1  0.000  0.000  0.032  0.000  0.000  0.000  0.000  0.000  0.000  0.032
    2  0.000  0.000  0.032  0.000  0.000  0.000  0.000  0.000  0.000  0.032
tot    0.000  0.000  0.064  0.000  0.000  0.000  0.000  0.000  0.000  0.064


 k-point     4 :    0.05172414 0.00000000 0.00000000     weight = 0.01111111

band     1 # energy  -21.71661728 # occ.  2.00000000

ion      s     py     pz     px    dxy    dyz    dz2    dxz  x2-y2    tot
    1  0.322  0.000  0.000  0.001  0.000  0.000  0.000  0.000  0.000  0.324
    2  0.322  0.000  0.000  0.001  0.000  0.000  0.000  0.000  0.000  0.324
tot    0.644  0.001  0.000  0.002  0.000  0.000  0.000  0.000  0.000  0.647

band     2 # energy   -9.79944859 # occ.  2.00000000

ion      s     py     pz     px    dxy    dyz    dz2    dxz  x2-y2    tot
    1  0.000  0.000  0.216  0.000  0.000  0.000  0.000  0.000  0.000  0.216
    2  0.000  0.000  0.216  0.000  0.000  0.000  0.000  0.000  0.000  0.216
tot    0.000  0.000  0.432  0.000  0.000  0.000  0.000  0.000  0.000  0.432

band     3 # energy   -5.53027346 # occ.  2.00000000

ion      s     py     pz     px    dxy    dyz    dz2    dxz  x2-y2    tot
    1  0.008  0.101  0.000  0.303  0.000  0.000  0.000  0.000  0.000  0.411
    2  0.008  0.101  0.000  0.303  0.000  0.000  0.000  0.000  0.000  0.411
tot    0.015  0.202  0.000  0.605  0.000  0.000  0.000  0.000  0.000  0.822

band     4 # energy   -5.40657784 # occ.  2.00000000

ion      s     py     pz     px    dxy    dyz    dz2    dxz  x2-y2    tot
    1  0.000  0.309  0.000  0.103  0.000  0.000  0.000  0.000  0.000  0.412
    2  0.000  0.309  0.000  0.103  0.000  0.000  0.000  0.000  0.000  0.412
tot    0.000  0.618  0.000  0.206  0.000  0.000  0.000  0.000  0.000  0.824

band     5 # energy    1.09089315 # occ.  0.00000000

ion      s     py     pz     px    dxy    dyz    dz2    dxz  x2-y2    tot
    1  0.009  0.000  0.000  0.000  0.000  0.000  0.000  0.000  0.000  0.010
    2  0.009  0.000  0.000  0.000  0.000  0.000  0.000  0.000  0.000  0.010
tot    0.019  0.000  0.000  0.000  0.000  0.000  0.000  0.000  0.000  0.019

band     6 # energy    1.99064640 # occ.  0.00000000

ion      s     py     pz     px    dxy    dyz    dz2    dxz  x2-y2    tot
    1  0.000  0.000  0.014  0.000  0.000  0.000  0.000  0.000  0.000  0.014
    2  0.000  0.000  0.014  0.000  0.000  0.000  0.000  0.000  0.000  0.014
tot    0.000  0.000  0.028  0.000  0.000  0.000  0.000  0.000  0.000  0.028

band     7 # energy    2.50946492 # occ.  0.00000000

ion      s     py     pz     px    dxy    dyz    dz2    dxz  x2-y2    tot
    1  0.003  0.000  0.000  0.000  0.000  0.000  0.000  0.000  0.000  0.003
    2  0.003  0.000  0.000  0.000  0.000  0.000  0.000  0.000  0.000  0.003
tot    0.006  0.000  0.000  0.000  0.000  0.000  0.000  0.000  0.000  0.006

band     8 # energy    4.37988340 # occ.  0.00000000

ion      s     py     pz     px    dxy    dyz    dz2    dxz  x2-y2    tot
    1  0.000  0.000  0.016  0.000  0.000  0.000  0.000  0.000  0.000  0.016
    2  0.000  0.000  0.016  0.000  0.000  0.000  0.000  0.000  0.000  0.016
tot    0.000  0.000  0.031  0.000  0.000  0.000  0.000  0.000  0.000  0.031

band     9 # energy    5.18175982 # occ.  0.00000000

ion      s     py     pz     px    dxy    dyz    dz2    dxz  x2-y2    tot
    1  0.007  0.000  0.000  0.001  0.000  0.000  0.000  0.000  0.000  0.008
    2  0.007  0.000  0.000  0.001  0.000  0.000  0.000  0.000  0.000  0.008
tot    0.013  0.001  0.000  0.002  0.000  0.000  0.000  0.000  0.000  0.015

band    10 # energy    6.15580494 # occ.  0.00000000

ion      s     py     pz     px    dxy    dyz    dz2    dxz  x2-y2    tot
    1  0.004  0.064  0.000  0.192  0.000  0.000  0.000  0.000  0.000  0.260
    2  0.004  0.064  0.000  0.192  0.000  0.000  0.000  0.000  0.000  0.260
tot    0.009  0.128  0.000  0.383  0.000  0.000  0.000  0.000  0.000  0.520

band    11 # energy    6.39467330 # occ.  0.00000000

ion      s     py     pz     px    dxy    dyz    dz2    dxz  x2-y2    tot
    1  0.000  0.199  0.000  0.066  0.000  0.000  0.000  0.000  0.000  0.266
    2  0.000  0.199  0.000  0.066  0.000  0.000  0.000  0.000  0.000  0.266
tot    0.000  0.399  0.000  0.133  0.000  0.000  0.000  0.000  0.000  0.531

band    12 # energy    8.30339201 # occ.  0.00000000

ion      s     py     pz     px    dxy    dyz    dz2    dxz  x2-y2    tot
    1  0.000  0.000  0.024  0.000  0.000  0.000  0.000  0.000  0.000  0.024
    2  0.000  0.000  0.024  0.000  0.000  0.000  0.000  0.000  0.000  0.024
tot    0.000  0.000  0.049  0.000  0.000  0.000  0.000  0.000  0.000  0.049

band    13 # energy    9.01447972 # occ.  0.00000000

ion      s     py     pz     px    dxy    dyz    dz2    dxz  x2-y2    tot
    1  0.000  0.000  0.386  0.000  0.000  0.000  0.000  0.000  0.000  0.386
    2  0.000  0.000  0.386  0.000  0.000  0.000  0.000  0.000  0.000  0.386
tot    0.000  0.000  0.772  0.000  0.000  0.000  0.000  0.000  0.000  0.772

band    14 # energy    9.41630697 # occ.  0.00000000

ion      s     py     pz     px    dxy    dyz    dz2    dxz  x2-y2    tot
    1  0.009  0.000  0.000  0.000  0.000  0.000  0.000  0.000  0.000  0.009
    2  0.009  0.000  0.000  0.000  0.000  0.000  0.000  0.000  0.000  0.009
tot    0.017  0.000  0.000  0.000  0.000  0.000  0.000  0.000  0.000  0.017

band    15 # energy   10.41375748 # occ.  0.00000000

ion      s     py     pz     px    dxy    dyz    dz2    dxz  x2-y2    tot
    1  0.348  0.002  0.000  0.007  0.000  0.000  0.000  0.000  0.000  0.358
    2  0.348  0.002  0.000  0.007  0.000  0.000  0.000  0.000  0.000  0.358
tot    0.697  0.005  0.000  0.015  0.000  0.000  0.000  0.000  0.000  0.716

band    16 # energy   13.62267151 # occ.  0.00000000

ion      s     py     pz     px    dxy    dyz    dz2    dxz  x2-y2    tot
    1  0.000  0.000  0.032  0.000  0.000  0.000  0.000  0.000  0.000  0.032
    2  0.000  0.000  0.032  0.000  0.000  0.000  0.000  0.000  0.000  0.032
tot    0.000  0.000  0.064  0.000  0.000  0.000  0.000  0.000  0.000  0.064


 k-point     5 :    0.06896552 0.00000000 0.00000000     weight = 0.01111111

band     1 # energy  -21.66738272 # occ.  2.00000000

ion      s     py     pz     px    dxy    dyz    dz2    dxz  x2-y2    tot
    1  0.321  0.001  0.000  0.002  0.000  0.000  0.000  0.000  0.000  0.324
    2  0.321  0.001  0.000  0.002  0.000  0.000  0.000  0.000  0.000  0.324
tot    0.643  0.001  0.000  0.004  0.000  0.000  0.000  0.000  0.000  0.648

band     2 # energy   -9.74028063 # occ.  2.00000000

ion      s     py     pz     px    dxy    dyz    dz2    dxz  x2-y2    tot
    1  0.000  0.000  0.216  0.000  0.000  0.000  0.000  0.000  0.000  0.216
    2  0.000  0.000  0.216  0.000  0.000  0.000  0.000  0.000  0.000  0.216
tot    0.000  0.000  0.433  0.000  0.000  0.000  0.000  0.000  0.000  0.433

band     3 # energy   -5.72505386 # occ.  2.00000000

ion      s     py     pz     px    dxy    dyz    dz2    dxz  x2-y2    tot
    1  0.013  0.099  0.000  0.297  0.000  0.000  0.000  0.000  0.000  0.409
    2  0.013  0.099  0.000  0.297  0.000  0.000  0.000  0.000  0.000  0.409
tot    0.026  0.198  0.000  0.594  0.000  0.000  0.000  0.000  0.000  0.818

band     4 # energy   -5.50770385 # occ.  2.00000000

ion      s     py     pz     px    dxy    dyz    dz2    dxz  x2-y2    tot
    1  0.000  0.308  0.000  0.103  0.000  0.000  0.000  0.000  0.000  0.411
    2  0.000  0.308  0.000  0.103  0.000  0.000  0.000  0.000  0.000  0.411
tot    0.000  0.616  0.000  0.205  0.000  0.000  0.000  0.000  0.000  0.821

band     5 # energy    1.15778945 # occ.  0.00000000

ion      s     py     pz     px    dxy    dyz    dz2    dxz  x2-y2    tot
    1  0.009  0.000  0.000  0.000  0.000  0.000  0.000  0.000  0.000  0.010
    2  0.009  0.000  0.000  0.000  0.000  0.000  0.000  0.000  0.000  0.010
tot    0.019  0.000  0.000  0.000  0.000  0.000  0.000  0.000  0.000  0.019

band     6 # energy    2.05818594 # occ.  0.00000000

ion      s     py     pz     px    dxy    dyz    dz2    dxz  x2-y2    tot
    1  0.000  0.000  0.014  0.000  0.000  0.000  0.000  0.000  0.000  0.014
    2  0.000  0.000  0.014  0.000  0.000  0.000  0.000  0.000  0.000  0.014
tot    0.000  0.000  0.028  0.000  0.000  0.000  0.000  0.000  0.000  0.028

band     7 # energy    2.57755517 # occ.  0.00000000

ion      s     py     pz     px    dxy    dyz    dz2    dxz  x2-y2    tot
    1  0.003  0.000  0.000  0.000  0.000  0.000  0.000  0.000  0.000  0.003
    2  0.003  0.000  0.000  0.000  0.000  0.000  0.000  0.000  0.000  0.003
tot    0.005  0.000  0.000  0.000  0.000  0.000  0.000  0.000  0.000  0.006

band     8 # energy    4.44699924 # occ.  0.00000000

ion      s     py     pz     px    dxy    dyz    dz2    dxz  x2-y2    tot
    1  0.000  0.000  0.016  0.000  0.000  0.000  0.000  0.000  0.000  0.016
    2  0.000  0.000  0.016  0.000  0.000  0.000  0.000  0.000  0.000  0.016
tot    0.000  0.000  0.031  0.000  0.000  0.000  0.000  0.000  0.000  0.031

band     9 # energy    5.24702998 # occ.  0.00000000

ion      s     py     pz     px    dxy    dyz    dz2    dxz  x2-y2    tot
    1  0.006  0.001  0.000  0.002  0.000  0.000  0.000  0.000  0.000  0.008
    2  0.006  0.001  0.000  0.002  0.000  0.000  0.000  0.000  0.000  0.008
tot    0.012  0.001  0.000  0.003  0.000  0.000  0.000  0.000  0.000  0.016

band    10 # energy    6.17399522 # occ.  0.00000000

ion      s     py     pz     px    dxy    dyz    dz2    dxz  x2-y2    tot
    1  0.009  0.062  0.000  0.187  0.000  0.000  0.000  0.000  0.000  0.258
    2  0.009  0.062  0.000  0.187  0.000  0.000  0.000  0.000  0.000  0.258
tot    0.017  0.124  0.000  0.373  0.000  0.000  0.000  0.000  0.000  0.515

band    11 # energy    6.60457374 # occ.  0.00000000

ion      s     py     pz     px    dxy    dyz    dz2    dxz  x2-y2    tot
    1  0.000  0.201  0.000  0.067  0.000  0.000  0.000  0.000  0.000  0.268
    2  0.000  0.201  0.000  0.067  0.000  0.000  0.000  0.000  0.000  0.268
tot    0.000  0.401  0.000  0.134  0.000  0.000  0.000  0.000  0.000  0.535

band    12 # energy    8.36852839 # occ.  0.00000000

ion      s     py     pz     px    dxy    dyz    dz2    dxz  x2-y2    tot
    1  0.000  0.000  0.025  0.000  0.000  0.000  0.000  0.000  0.000  0.025
    2  0.000  0.000  0.025  0.000  0.000  0.000  0.000  0.000  0.000  0.025
tot    0.000  0.000  0.049  0.000  0.000  0.000  0.000  0.000  0.000  0.049

band    13 # energy    8.84519434 # occ.  0.00000000

ion      s     py     pz     px    dxy    dyz    dz2    dxz  x2-y2    tot
    1  0.000  0.000  0.382  0.000  0.000  0.000  0.000  0.000  0.000  0.382
    2  0.000  0.000  0.382  0.000  0.000  0.000  0.000  0.000  0.000  0.382
tot    0.000  0.000  0.764  0.000  0.000  0.000  0.000  0.000  0.000  0.764

band    14 # energy    9.48380938 # occ.  0.00000000

ion      s     py     pz     px    dxy    dyz    dz2    dxz  x2-y2    tot
    1  0.009  0.000  0.000  0.000  0.000  0.000  0.000  0.000  0.000  0.009
    2  0.009  0.000  0.000  0.000  0.000  0.000  0.000  0.000  0.000  0.009
tot    0.018  0.000  0.000  0.000  0.000  0.000  0.000  0.000  0.000  0.018

band    15 # energy   10.50676192 # occ.  0.00000000

ion      s     py     pz     px    dxy    dyz    dz2    dxz  x2-y2    tot
    1  0.340  0.004  0.000  0.013  0.000  0.000  0.000  0.000  0.000  0.358
    2  0.340  0.004  0.000  0.013  0.000  0.000  0.000  0.000  0.000  0.358
tot    0.681  0.009  0.000  0.027  0.000  0.000  0.000  0.000  0.000  0.716

band    16 # energy   13.68294883 # occ.  0.00000000

ion      s     py     pz     px    dxy    dyz    dz2    dxz  x2-y2    tot
    1  0.000  0.000  0.032  0.000  0.000  0.000  0.000  0.000  0.000  0.032
    2  0.000  0.000  0.032  0.000  0.000  0.000  0.000  0.000  0.000  0.032
tot    0.000  0.000  0.064  0.000  0.000  0.000  0.000  0.000  0.000  0.064


 k-point     6 :    0.08620690 0.00000000 0.00000000     weight = 0.01111111

band     1 # energy  -21.60412186 # occ.  2.00000000

ion      s     py     pz     px    dxy    dyz    dz2    dxz  x2-y2    tot
    1  0.320  0.001  0.000  0.003  0.000  0.000  0.000  0.000  0.000  0.324
    2  0.320  0.001  0.000  0.003  0.000  0.000  0.000  0.000  0.000  0.324
tot    0.641  0.002  0.000  0.006  0.000  0.000  0.000  0.000  0.000  0.648

band     2 # energy   -9.66489353 # occ.  2.00000000

ion      s     py     pz     px    dxy    dyz    dz2    dxz  x2-y2    tot
    1  0.000  0.000  0.217  0.000  0.000  0.000  0.000  0.000  0.000  0.217
    2  0.000  0.000  0.217  0.000  0.000  0.000  0.000  0.000  0.000  0.217
tot    0.000  0.000  0.433  0.000  0.000  0.000  0.000  0.000  0.000  0.433

band     3 # energy   -5.96694737 # occ.  2.00000000

ion      s     py     pz     px    dxy    dyz    dz2    dxz  x2-y2    tot