<?xml version="1.0" encoding="ISO-8859-1"?>
<modeling>
 <generator>
  <i name="program" type="string">vasp </i>
  <i name="version" type="string">5.4.4.18Apr17-6-g9f103f2a35  </i>
  <i name="subversion" type="string">(build May 21 2018 15:16:00) complex            parallel </i>
  <i name="platform" type="string">GUN_wannier90_optcell </i>
  <i name="date" type="string">2019 03 23 </i>
  <i name="time" type="string">14:17:35 </i>
 </generator>
 <incar>
  <i type="string" name="SYSTEM"> C</i>
  <i type="int" name="ISTART">     0</i>
  <i type="string" name="PREC">a</i>
  <i type="string" name="ALGO">     N ! Normal     algorithm</i>
  <i type="logical" name="LDIAG"> T  </i>
  <i type="int" name="ICHARG">    11</i>
  <i type="int" name="NELM">  2000</i>
  <i type="int" name="NELMIN">     5</i>
  <i type="int" name="IBRION">    -1</i>
  <i name="EDIFF">      0.00000100</i>
  <i name="EDIFFG">     -0.01000000</i>
  <i type="int" name="NSW">     0</i>
  <i type="int" name="NBLOCK">     1</i>
  <i type="int" name="KBLOCK">     5</i>
  <i name="ENCUT">    400.00000000</i>
  <i type="int" name="NBANDS">    16</i>
  <i name="POTIM">      0.50000000</i>
  <i type="int" name="NEDOS">  3000</i>
  <i type="logical" name="LREAL"> F  </i>
  <i name="EMIN">    -15.00000000</i>
  <i name="EMAX">      5.00000000</i>
  <i type="int" name="ISMEAR">     0</i>
  <i name="SIGMA">      0.01000000</i>
  <i type="int" name="NWRITE">     1</i>
  <i type="logical" name="LCORR"> T  </i>
  <i type="logical" name="LWAVE"> F  </i>
  <i type="logical" name="LCHARG"> F  </i>
  <i type="int" name="LORBIT">    11</i>
  <v type="int" name="KPOINT_BSE">    -1     0     0     0</v>
  <i type="int" name="NELM">  2000</i>
 </incar>
 <structure name="primitive_cell" >
  <crystal>
   <varray name="basis" >
    <v>       2.46413828       0.00000000       0.00000000 </v>
    <v>      -1.23206914       2.13400635       0.00000000 </v>
    <v>       0.00000000       0.00000000      15.00000000 </v>
   </varray>
   <i name="volume">     78.87730093 </i>
   <varray name="rec_basis" >
    <v>       0.40582138       0.23430108      -0.00000000 </v>
    <v>       0.00000000       0.46860217       0.00000000 </v>
    <v>       0.00000000      -0.00000000       0.06666667 </v>
   </varray>
  </crystal>
  <varray name="positions" >
   <v>       0.00000000       0.00000000       0.14475063 </v>
   <v>      -0.33333302       0.33333300       0.14475063 </v>
  </varray>
 </structure>
 <varray name="primitive_index" >
  <v type="int" >        1 </v>
  <v type="int" >        2 </v>
 </varray>
 <kpoints>
  <generation param="listgenerated">
   <i name="divisions" type="int">      30 </i>
   <v>       0.00000000       0.00000000       0.00000000 </v>
   <v>       0.50000000       0.00000000       0.00000000 </v>
   <v>       0.33333000       0.33333000       0.00000000 </v>
   <v>       0.00000000       0.00000000       0.00000000 </v>
  </generation>
  <varray name="kpointlist" >
   <v>       0.00000000       0.00000000       0.00000000 </v>
   <v>       0.01724138       0.00000000       0.00000000 </v>
   <v>       0.03448276       0.00000000       0.00000000 </v>
   <v>       0.05172414       0.00000000       0.00000000 </v>
   <v>       0.06896552       0.00000000       0.00000000 </v>
   <v>       0.08620690       0.00000000       0.00000000 </v>
   <v>       0.10344828       0.00000000       0.00000000 </v>
   <v>       0.12068966       0.00000000       0.00000000 </v>
   <v>       0.13793103       0.00000000       0.00000000 </v>
   <v>       0.15517241       0.00000000       0.00000000 </v>
   <v>       0.17241379       0.00000000       0.00000000 </v>
   <v>       0.18965517       0.00000000       0.00000000 </v>
   <v>       0.20689655       0.00000000       0.00000000 </v>
   <v>       0.22413793       0.00000000       0.00000000 </v>
   <v>       0.24137931       0.00000000       0.00000000 </v>
   <v>       0.25862069       0.00000000       0.00000000 </v>
   <v>       0.27586207       0.00000000       0.00000000 </v>
   <v>       0.29310345       0.00000000       0.00000000 </v>
   <v>       0.31034483       0.00000000       0.00000000 </v>
   <v>       0.32758621       0.00000000       0.00000000 </v>
   <v>       0.34482759       0.00000000       0.00000000 </v>
   <v>       0.36206897       0.00000000       0.00000000 </v>
   <v>       0.37931034       0.00000000       0.00000000 </v>
   <v>       0.39655172       0.00000000       0.00000000 </v>
   <v>       0.41379310       0.00000000       0.00000000 </v>
   <v>       0.43103448       0.00000000       0.00000000 </v>
   <v>       0.44827586       0.00000000       0.00000000 </v>
   <v>       0.46551724       0.00000000       0.00000000 </v>
   <v>       0.48275862       0.00000000       0.00000000 </v>
   <v>       0.50000000       0.00000000       0.00000000 </v>
   <v>       0.50000000       0.00000000       0.00000000 </v>
   <v>       0.49425276       0.01149414       0.00000000 </v>
   <v>       0.48850552       0.02298828       0.00000000 </v>
   <v>       0.48275828       0.03448241       0.00000000 </v>
   <v>       0.47701103       0.04597655       0.00000000 </v>
   <v>       0.47126379       0.05747069       0.00000000 </v>
   <v>       0.46551655       0.06896483       0.00000000 </v>
   <v>       0.45976931       0.08045897       0.00000000 </v>
   <v>       0.45402207       0.09195310       0.00000000 </v>
   <v>       0.44827483       0.10344724       0.00000000 </v>
   <v>       0.44252759       0.11494138       0.00000000 </v>
   <v>       0.43678034       0.12643552       0.00000000 </v>
   <v>       0.43103310       0.13792966       0.00000000 </v>
   <v>       0.42528586       0.14942379       0.00000000 </v>
   <v>       0.41953862       0.16091793       0.00000000 </v>
   <v>       0.41379138       0.17241207       0.00000000 </v>
   <v>       0.40804414       0.18390621       0.00000000 </v>
   <v>       0.40229690       0.19540034       0.00000000 </v>
   <v>       0.39654966       0.20689448       0.00000000 </v>
   <v>       0.39080241       0.21838862       0.00000000 </v>
   <v>       0.38505517       0.22988276       0.00000000 </v>
   <v>       0.37930793       0.24137690       0.00000000 </v>
   <v>       0.37356069       0.25287103       0.00000000 </v>
   <v>       0.36781345       0.26436517       0.00000000 </v>
   <v>       0.36206621       0.27585931       0.00000000 </v>
   <v>       0.35631897       0.28735345       0.00000000 </v>
   <v>       0.35057172       0.29884759       0.00000000 </v>
   <v>       0.34482448       0.31034172       0.00000000 </v>
   <v>       0.33907724       0.32183586       0.00000000 </v>
   <v>       0.33333000       0.33333000       0.00000000 </v>
   <v>       0.33333000       0.33333000       0.00000000 </v>
   <v>       0.32183586       0.32183586       0.00000000 </v>
   <v>       0.31034172       0.31034172       0.00000000 </v>
   <v>       0.29884759       0.29884759       0.00000000 </v>
   <v>       0.28735345       0.28735345       0.00000000 </v>
   <v>       0.27585931       0.27585931       0.00000000 </v>
   <v>       0.26436517       0.26436517       0.00000000 </v>
   <v>       0.25287103       0.25287103       0.00000000 </v>
   <v>       0.24137690       0.24137690       0.00000000 </v>
   <v>       0.22988276       0.22988276       0.00000000 </v>
   <v>       0.21838862       0.21838862       0.00000000 </v>
   <v>       0.20689448       0.20689448       0.00000000 </v>
   <v>       0.19540034       0.19540034       0.00000000 </v>
   <v>       0.18390621       0.18390621       0.00000000 </v>
   <v>       0.17241207       0.17241207       0.00000000 </v>
   <v>       0.16091793       0.16091793       0.00000000 </v>
   <v>       0.14942379       0.14942379       0.00000000 </v>
   <v>       0.13792966       0.13792966       0.00000000 </v>
   <v>       0.12643552       0.12643552       0.00000000 </v>
   <v>       0.11494138       0.11494138       0.00000000 </v>
   <v>       0.10344724       0.10344724       0.00000000 </v>
   <v>       0.09195310       0.09195310       0.00000000 </v>
   <v>       0.08045897       0.08045897       0.00000000 </v>
   <v>       0.06896483       0.06896483       0.00000000 </v>
   <v>       0.05747069       0.05747069       0.00000000 </v>
   <v>       0.04597655       0.04597655       0.00000000 </v>
   <v>       0.03448241       0.03448241       0.00000000 </v>
   <v>       0.02298828       0.02298828       0.00000000 </v>
   <v>       0.01149414       0.01149414       0.00000000 </v>
   <v>       0.00000000       0.00000000       0.00000000 </v>
  </varray>
  <varray name="weights" >
   <v>       0.01111111 </v>
   <v>       0.01111111 </v>
   <v>       0.01111111 </v>
   <v>       0.01111111 </v>
   <v>       0.01111111 </v>
   <v>       0.01111111 </v>
   <v>       0.01111111 </v>
   <v>       0.01111111 </v>
   <v>       0.01111111 </v>
   <v>       0.01111111 </v>
   <v>       0.01111111 </v>
   <v>       0.01111111 </v>
   <v>       0.01111111 </v>
   <v>       0.01111111 </v>
   <v>       0.01111111 </v>
   <v>       0.01111111 </v>
   <v>       0.01111111 </v>
   <v>       0.01111111 </v>
   <v>       0.01111111 </v>
   <v>       0.01111111 </v>
   <v>       0.01111111 </v>
   <v>       0.01111111 </v>
   <v>       0.01111111 </v>
   <v>       0.01111111 </v>
   <v>       0.01111111 </v>
   <v>       0.01111111 </v>
   <v>       0.01111111 </v>
   <v>       0.01111111 </v>
   <v>       0.01111111 </v>
   <v>       0.01111111 </v>
   <v>       0.01111111 </v>
   <v>       0.01111111 </v>
   <v>       0.01111111 </v>
   <v>       0.01111111 </v>
   <v>       0.01111111 </v>
   <v>       0.01111111 </v>
   <v>       0.01111111 </v>
   <v>       0.01111111 </v>
   <v>       0.01111111 </v>
   <v>       0.01111111 </v>
   <v>       0.01111111 </v>
   <v>       0.01111111 </v>
   <v>       0.01111111 </v>
   <v>       0.01111111 </v>
   <v>       0.01111111 </v>
   <v>       0.01111111 </v>
   <v>       0.01111111 </v>
   <v>       0.01111111 </v>
   <v>       0.01111111 </v>
   <v>       0.01111111 </v>
   <v>       0.01111111 </v>
   <v>       0.01111111 </v>
   <v>       0.01111111 </v>
   <v>       0.01111111 </v>
   <v>       0.01111111 </v>
   <v>       0.01111111 </v>
   <v>       0.01111111 </v>
   <v>       0.01111111 </v>
   <v>       0.01111111 </v>
   <v>       0.01111111 </v>
   <v>       0.01111111 </v>
   <v>       0.01111111 </v>
   <v>       0.01111111 </v>
   <v>       0.01111111 </v>
   <v>       0.01111111 </v>
   <v>       0.01111111 </v>
   <v>       0.01111111 </v>
   <v>       0.01111111 </v>
   <v>       0.01111111 </v>
   <v>       0.01111111 </v>
   <v>       0.01111111 </v>
   <v>       0.01111111 </v>
   <v>       0.01111111 </v>
   <v>       0.01111111 </v>
   <v>       0.01111111 </v>
   <v>       0.01111111 </v>
   <v>       0.01111111 </v>
   <v>       0.01111111 </v>
   <v>       0.01111111 </v>
   <v>       0.01111111 </v>
   <v>       0.01111111 </v>
   <v>       0.01111111 </v>
   <v>       0.01111111 </v>
   <v>       0.01111111 </v>
   <v>       0.01111111 </v>
   <v>       0.01111111 </v>
   <v>       0.01111111 </v>
   <v>       0.01111111 </v>
   <v>       0.01111111 </v>
   <v>       0.01111111 </v>
  </varray>
 </kpoints>
 <parameters>
  <separator name="general" >
   <i type="string" name="SYSTEM">C</i>
   <i type="logical" name="LCOMPAT"> F  </i>
  </separator>
  <separator name="electronic" >
   <i type="string" name="PREC">a</i>
   <i name="ENMAX">    400.00000000</i>
   <i name="ENAUG">    644.87300000</i>
   <i name="EDIFF">      0.00000100</i>
   <i type="int" name="IALGO">    38</i>
   <i type="int" name="IWAVPR">    10</i>
   <i type="int" name="NBANDS">    16</i>
   <i name="NELECT">      8.00000000</i>
   <i type="int" name="TURBO">     0</i>
   <i type="int" name="IRESTART">     0</i>
   <i type="int" name="NREBOOT">     0</i>
   <i type="int" name="NMIN">     0</i>
   <i name="EREF">      0.00000000</i>
   <separator name="electronic smearing" >
    <i type="int" name="ISMEAR">     0</i>
    <i name="SIGMA">      0.01000000</i>
    <i name="KSPACING">      0.50000000</i>
    <i type="logical" name="KGAMMA"> T  </i>
   </separator>
   <separator name="electronic projectors" >
    <i type="logical" name="LREAL"> F  </i>
    <v name="ROPT">      0.00000000</v>
    <i type="int" name="LMAXPAW">  -100</i>
    <i type="int" name="LMAXMIX">     2</i>
    <i type="logical" name="NLSPLINE"> F  </i>
   </separator>
   <separator name="electronic startup" >
    <i type="int" name="ISTART">     0</i>
    <i type="int" name="ICHARG">    11</i>
    <i type="int" name="INIWAV">     1</i>
   </separator>
   <separator name="electronic spin" >
    <i type="int" name="ISPIN">     1</i>
    <i type="logical" name="LNONCOLLINEAR"> F  </i>
    <v name="MAGMOM">      1.00000000      1.00000000</v>
    <i name="NUPDOWN">     -1.00000000</i>
    <i type="logical" name="LSORBIT"> F  </i>
    <v name="SAXIS">      0.00000000      0.00000000      1.00000000</v>
    <i type="logical" name="LSPIRAL"> F  </i>
    <v name="QSPIRAL">      0.00000000      0.00000000      0.00000000</v>
    <i type="logical" name="LZEROZ"> F  </i>
   </separator>
   <separator name="electronic exchange-correlation" >
    <i type="logical" name="LASPH"> F  </i>
    <i type="logical" name="LMETAGGA"> F  </i>
   </separator>
   <separator name="electronic convergence" >
    <i type="int" name="NELM">  2000</i>
    <i type="int" name="NELMDL">    -5</i>
    <i type="int" name="NELMIN">     5</i>
    <i name="ENINI">    400.00000000</i>
    <separator name="electronic convergence detail" >
     <i type="logical" name="LDIAG"> T  </i>
     <i type="logical" name="LSUBROT"> F  </i>
     <i name="WEIMIN">      0.00000000</i>
     <i name="EBREAK">      0.00000002</i>
     <i name="DEPER">      0.30000000</i>
     <i type="int" name="NRMM">     4</i>
     <i name="TIME">      0.40000000</i>
    </separator>
   </separator>
   <separator name="electronic mixer" >
    <i name="AMIX">      0.40000000</i>
    <i name="BMIX">      1.00000000</i>
    <i name="AMIN">      0.10000000</i>
    <i name="AMIX_MAG">      1.60000000</i>
    <i name="BMIX_MAG">      1.00000000</i>
    <separator name="electronic mixer details" >
     <i type="int" name="IMIX">     4</i>
     <i type="logical" name="MIXFIRST"> F  </i>
     <i type="int" name="MAXMIX">   -45</i>
     <i name="WC">    100.00000000</i>
     <i type="int" name="INIMIX">     1</i>
     <i type="int" name="MIXPRE">     1</i>
     <i type="int" name="MREMOVE">     5</i>
    </separator>
   </separator>
   <separator name="electronic dipolcorrection" >
    <i type="logical" name="LDIPOL"> F  </i>
    <i type="logical" name="LMONO"> F  </i>
    <i type="int" name="IDIPOL">     0</i>
    <i name="EPSILON">      1.00000000</i>
    <v name="DIPOL">   -100.00000000   -100.00000000   -100.00000000</v>
    <i name="EFIELD">      0.00000000</i>
   </separator>
  </separator>
  <separator name="grids" >
   <i type="int" name="NGX">    16</i>
   <i type="int" name="NGY">    16</i>
   <i type="int" name="NGZ">    98</i>
   <i type="int" name="NGXF">    32</i>
   <i type="int" name="NGYF">    32</i>
   <i type="int" name="NGZF">   196</i>
   <i type="logical" name="ADDGRID"> F  </i>
  </separator>
  <separator name="ionic" >
   <i type="int" name="NSW">     0</i>
   <i type="int" name="IBRION">    -1</i>
   <i type="int" name="MDALGO">     0</i>
   <i type="int" name="ISIF">     2</i>
   <i name="PSTRESS">      0.00000000</i>
   <i name="EDIFFG">     -0.01000000</i>
   <i type="int" name="NFREE">     0</i>
   <i name="POTIM">      0.50000000</i>
   <i name="SMASS">     -3.00000000</i>
   <i name="SCALEE">      1.00000000</i>
  </separator>
  <separator name="ionic md" >
   <i name="TEBEG">      0.00010000</i>
   <i name="TEEND">      0.00010000</i>
   <i type="int" name="NBLOCK">     1</i>
   <i type="int" name="KBLOCK">     1</i>
   <i type="int" name="NPACO">   256</i>
   <i name="APACO">     16.00000000</i>
  </separator>
  <separator name="symmetry" >
   <i type="int" name="ISYM">     2</i>
   <i name="SYMPREC">      0.00001000</i>
  </separator>
  <separator name="dos" >
   <i type="int" name="LORBIT">    11</i>
   <v name="RWIGS">     -1.00000000</v>
   <i type="int" name="NEDOS">  3000</i>
   <i name="EMIN">    -15.00000000</i>
   <i name="EMAX">      5.00000000</i>
   <i name="EFERMI">      0.00000000</i>
  </separator>
  <separator name="writing" >
   <i type="int" name="NWRITE">     1</i>
   <i type="logical" name="LWAVE"> F  </i>
   <i type="logical" name="LDOWNSAMPLE"> F  </i>
   <i type="logical" name="LCHARG"> F  </i>
   <i type="logical" name="LPARD"> F  </i>
   <i type="logical" name="LVTOT"> F  </i>
   <i type="logical" name="LVHAR"> F  </i>
   <i type="logical" name="LELF"> F  </i>
   <i type="logical" name="LOPTICS"> F  </i>
   <v name="STM">      0.00000000      0.00000000      0.00000000      0.00000000      0.00000000      0.00000000      0.00000000</v>
  </separator>
  <separator name="performance" >
   <i type="int" name="NPAR">     2</i>
   <i type="int" name="NSIM">     4</i>
   <i type="int" name="NBLK">    -1</i>
   <i type="logical" name="LPLANE"> T  </i>
   <i type="logical" name="LSCALAPACK"> T  </i>
   <i type="logical" name="LSCAAWARE"> F  </i>
   <i type="logical" name="LSCALU"> F  </i>
   <i type="logical" name="LASYNC"> F  </i>
   <i type="logical" name="LORBITALREAL"> F  </i>
  </separator>
  <separator name="miscellaneous" >
   <i type="int" name="IDIOT">     3</i>
   <i type="int" name="ISPECIAL">     0</i>
   <i type="logical" name="LMUSIC"> F  </i>
   <v name="POMASS">     12.01100000</v>
   <v name="DARWINR">      0.00000000</v>
   <v name="DARWINV">      1.00000000</v>
   <i type="logical" name="LCORR"> T  </i>
  </separator>
  <i type="logical" name="GGA_COMPAT"> T  </i>
  <i type="logical" name="LBERRY"> F  </i>
  <i type="int" name="ICORELEVEL">     0</i>
  <i type="logical" name="LDAU"> F  </i>
  <i type="int" name="I_CONSTRAINED_M">     0</i>
  <separator name="electronic exchange-correlation" >
   <i type="string" name="GGA">--</i>
   <i type="int" name="VOSKOWN">     0</i>
   <i type="logical" name="LHFCALC"> F  </i>
   <i type="string" name="PRECFOCK"></i>
   <i type="logical" name="LSYMGRAD"> F  </i>
   <i type="logical" name="LHFONE"> F  </i>
   <i type="logical" name="LRHFCALC"> F  </i>
   <i type="logical" name="LTHOMAS"> F  </i>
   <i type="logical" name="LMODELHF"> F  </i>
   <i name="ENCUT4O">     -1.00000000</i>
   <i type="int" name="EXXOEP">     0</i>
   <i type="int" name="FOURORBIT">     0</i>
   <i name="AEXX">      0.00000000</i>
   <i name="HFALPHA">      0.00000000</i>
   <i name="MCALPHA">      0.00000000</i>
   <i name="ALDAX">      1.00000000</i>
   <i name="AGGAX">      1.00000000</i>
   <i name="ALDAC">      1.00000000</i>
   <i name="AGGAC">      1.00000000</i>
   <i type="int" name="NKREDX">     1</i>
   <i type="int" name="NKREDY">     1</i>
   <i type="int" name="NKREDZ">     1</i>
   <i type="logical" name="SHIFTRED"> F  </i>
   <i type="logical" name="ODDONLY"> F  </i>
   <i type="logical" name="EVENONLY"> F  </i>
   <i type="int" name="LMAXFOCK">     0</i>
   <i type="int" name="NMAXFOCKAE">     0</i>
   <i type="logical" name="LFOCKAEDFT"> F  </i>
   <i name="HFSCREEN">      0.00000000</i>
   <i name="HFSCREENC">      0.00000000</i>
   <i type="int" name="NBANDSGWLOW">     0</i>
  </separator>
  <separator name="vdW DFT" >
   <i type="logical" name="LUSE_VDW"> F  </i>
   <i name="Zab_VDW">     -0.84910000</i>
   <i name="PARAM1">      0.12340000</i>
   <i name="PARAM2">      1.00000000</i>
   <i name="PARAM3">      0.00000000</i>
  </separator>
  <separator name="model GW" >
   <i type="int" name="MODEL_GW">     0</i>
   <i name="MODEL_EPS0">     23.66319028</i>
   <i name="MODEL_ALPHA">      1.00000000</i>
  </separator>
  <separator name="linear response parameters" >
   <i type="logical" name="LEPSILON"> F  </i>
   <i type="logical" name="LRPA"> F  </i>
   <i type="logical" name="LNABLA"> F  </i>
   <i type="logical" name="LVEL"> F  </i>
   <i type="int" name="KINTER">     0</i>
   <i name="CSHIFT">      0.10000000</i>
   <i name="OMEGAMAX">     -1.00000000</i>
   <i name="DEG_THRESHOLD">      0.00200000</i>
   <i name="RTIME">     -0.10000000</i>
   <i name="WPLASMAI">      0.00000000</i>
   <v name="DFIELD">      0.00000000      0.00000000      0.00000000</v>
   <v name="WPLASMA">      0.00000000      0.00000000      0.00000000      0.00000000      0.00000000      0.00000000      0.00000000      0.00000000      0.00000000</v>
  </separator>
  <separator name="orbital magnetization" >
   <i type="logical" name="NUCIND"> F  </i>
   <v name="MAGPOS">      0.00000000      0.00000000      0.00000000</v>
   <i type="logical" name="LNICSALL"> T  </i>
   <i type="logical" name="ORBITALMAG"> F  </i>
   <i type="logical" name="LMAGBLOCH"> F  </i>
   <i type="logical" name="LCHIMAG"> F  </i>
   <i type="logical" name="LGAUGE"> T  </i>
   <i type="int" name="MAGATOM">     0</i>
   <v name="MAGDIPOL">      0.00000000      0.00000000      0.00000000</v>
   <v name="AVECCONST">      0.00000000      0.00000000      0.00000000</v>
  </separator>
  <separator name="response functions" >
   <i type="logical" name="LADDER"> F  </i>
   <i type="logical" name="LRPAFORCE"> F  </i>
   <i type="logical" name="LFXC"> F  </i>
   <i type="logical" name="LHARTREE"> T  </i>
   <i type="int" name="IBSE">     0</i>
   <v type="int" name="KPOINT">    -1     0     0     0</v>
   <i type="logical" name="LTCTE"> F  </i>
   <i type="logical" name="LTETE"> F  </i>
   <i type="logical" name="LTRIPLET"> F  </i>
   <i type="logical" name="LFXCEPS"> F  </i>
   <i type="logical" name="LFXHEG"> F  </i>
   <i type="int" name="NATURALO">     2</i>
   <i type="logical" name="L2ORDER"> F  </i>
   <i type="logical" name="LMP2LT"> F  </i>
   <i type="logical" name="LUSEW"> F  </i>
   <i name="ENCUTGW">     -2.00000000</i>
   <i name="ENCUTGWSOFT">     -2.00000000</i>
   <i name="ENCUTLF">     -1.00000000</i>
   <i type="int" name="LMAXMP2">    -1</i>
   <i name="SCISSOR">      0.00000000</i>
   <i type="int" name="NOMEGA">     0</i>
   <i type="int" name="NOMEGAR">     0</i>
   <i type="int" name="NBANDSGW">    -1</i>
   <i type="int" name="NBANDSO">    -1</i>
   <i type="int" name="NBANDSV">    -1</i>
   <i type="int" name="NELM">  2000</i>
   <i type="int" name="NELMHF">     1</i>
   <i type="int" name="DIM">     3</i>
   <i type="int" name="ANTIRES">     0</i>
   <i name="OMEGAMAX">    -30.00000000</i>
   <i name="OMEGAMIN">    -30.00000000</i>
   <i name="OMEGATL">   -200.00000000</i>
   <i type="int" name="OMEGAGRID">   140</i>
   <i name="CSHIFT">     -0.10000000</i>
   <i type="logical" name="SELFENERGY"> F  </i>
   <i type="logical" name="LSPECTRAL"> F  </i>
   <i type="logical" name="LSPECTRALGW"> F  </i>
   <i type="logical" name="LSINGLES"> F  </i>
   <i type="logical" name="LFERMIGW"> F  </i>
   <i type="logical" name="ODDONLYGW"> F  </i>
   <i type="logical" name="EVENONLYGW"> F  </i>
   <i type="int" name="NKREDLFX">     1</i>
   <i type="int" name="NKREDLFY">     1</i>
   <i type="int" name="NKREDLFZ">     1</i>
   <i type="int" name="MAXMEM">  2800</i>
   <i type="int" name="TELESCOPE">     0</i>
   <i type="int" name="TAUPAR">     1</i>
   <i type="int" name="OMEGAPAR">    -1</i>
   <i name="LAMBDA">      1.00000000</i>
  </separator>
  <separator name="External order field" >
   <i name="OFIELD_KAPPA">      0.00000000</i>
   <v name="OFIELD_K">      0.00000000      0.00000000      0.00000000</v>
   <i name="OFIELD_Q6_NEAR">      0.00000000</i>
   <i name="OFIELD_Q6_FAR">      0.00000000</i>
   <i name="OFIELD_A">      0.00000000</i>
  </separator>
 </parameters>
 <atominfo>
  <atoms>       2 </atoms>
  <types>       1 </types>
  <array name="atoms" >
   <dimension dim="1">ion</dimension>
   <field type="string">element</field>
   <field type="int">atomtype</field>
   <set>
    <rc><c>C </c><c>   1</c></rc>
    <rc><c>C </c><c>   1</c></rc>
   </set>
  </array>
  <array name="atomtypes" >
   <dimension dim="1">type</dimension>
   <field type="int">atomspertype</field>
   <field type="string">element</field>
   <field>mass</field>
   <field>valence</field>
   <field type="string">pseudopotential</field>
   <set>
    <rc><c>   2</c><c>C </c><c>     12.01100000</c><c>      4.00000000</c><c>  PAW_PBE C 08Apr2002                   </c></rc>
   </set>
  </array>
 </atominfo>
 <structure name="initialpos" >
  <crystal>
   <varray name="basis" >
    <v>       2.46413828       0.00000000       0.00000000 </v>
    <v>      -1.23206914       2.13400635       0.00000000 </v>
    <v>       0.00000000       0.00000000      15.00000000 </v>
   </varray>
   <i name="volume">     78.87730093 </i>
   <varray name="rec_basis" >
    <v>       0.40582138       0.23430108      -0.00000000 </v>
    <v>       0.00000000       0.46860217       0.00000000 </v>
    <v>       0.00000000      -0.00000000       0.06666667 </v>
   </varray>
  </crystal>
  <varray name="positions" >
   <v>       0.00000000       0.00000000       0.14475063 </v>
   <v>       0.66666698       0.33333300       0.14475063 </v>
  </varray>
 </structure>
 <calculation>
  <scstep>
   <time name="dav">    3.26    3.55</time>
   <time name="total">    3.31    3.60</time>
   <energy>
    <i name="alphaZ">      4.16579751 </i>
    <i name="ewald">    838.31313047 </i>
    <i name="hartreedc">  -1090.27479332 </i>
    <i name="XCdc">     27.55628356 </i>
    <i name="pawpsdc">    859.68827702 </i>
    <i name="pawaedc">   -861.04133284 </i>
    <i name="eentropy">     -0.00006437 </i>
    <i name="bandstr">    -48.34739103 </i>
    <i name="atom">    294.25444774 </i>
    <i name="e_fr_energy">     24.31435475 </i>
    <i name="e_wo_entrp">     24.31441912 </i>
    <i name="e_0_energy">     24.31438694 </i>
   </energy>
  </scstep>
  <scstep>
   <time name="dav">    3.51    3.56</time>
   <time name="total">    3.51    3.56</time>
   <energy>
    <i name="e_fr_energy">    -15.25241553 </i>
    <i name="e_wo_entrp">    -15.25241553 </i>
    <i name="e_0_energy">    -15.25241553 </i>
   </energy>
  </scstep>
  <scstep>
   <time name="dav">    3.16    3.17</time>
   <time name="total">    3.16    3.17</time>
   <energy>
    <i name="e_fr_energy">    -17.32087724 </i>
    <i name="e_wo_entrp">    -17.32062943 </i>
    <i name="e_0_energy">    -17.32075333 </i>
   </energy>
  </scstep>
  <scstep>
   <time name="dav">    3.20    3.20</time>
   <time name="total">    3.20    3.20</time>
   <energy>
    <i name="e_fr_energy">    -17.33644320 </i>
    <i name="e_wo_entrp">    -17.33619248 </i>
    <i name="e_0_energy">    -17.33631784 </i>
   </energy>
  </scstep>
  <scstep>
   <time name="dav">    3.16    3.17</time>
   <time name="total">    3.16    3.17</time>
   <energy>
    <i name="e_fr_energy">    -17.33657528 </i>
    <i name="e_wo_entrp">    -17.33632456 </i>
    <i name="e_0_energy">    -17.33644992 </i>
   </energy>
  </scstep>
  <scstep>
   <time name="dav">    3.41    3.42</time>
   <time name="total">    3.41    3.42</time>
   <energy>
    <i name="e_fr_energy">    -17.33657882 </i>
    <i name="e_wo_entrp">    -17.33632809 </i>
    <i name="e_0_energy">    -17.33645345 </i>
   </energy>
  </scstep>
  <scstep>
   <time name="dav">    3.09    3.09</time>
   <time name="total">    3.09    3.10</time>
   <energy>
    <i name="alphaZ">      4.16579751 </i>
    <i name="ewald">    838.31313047 </i>
    <i name="hartreedc">  -1090.27479332 </i>
    <i name="XCdc">     27.55628356 </i>
    <i name="pawpsdc">    859.68827702 </i>
    <i name="pawaedc">   -861.04133284 </i>
    <i name="eentropy">     -0.00025072 </i>
    <i name="bandstr">    -89.99813838 </i>
    <i name="atom">    294.25444774 </i>
    <i name="e_fr_energy">    -17.33657895 </i>
    <i name="e_wo_entrp">    -17.33632822 </i>
    <i name="e_0_energy">    -17.33645359 </i>
   </energy>
  </scstep>
  <structure>
   <crystal>
    <varray name="basis" >
     <v>       2.46413828       0.00000000       0.00000000 </v>
     <v>      -1.23206914       2.13400635       0.00000000 </v>
     <v>       0.00000000       0.00000000      15.00000000 </v>
    </varray>
    <i name="volume">     78.87730093 </i>
    <varray name="rec_basis" >
     <v>       0.40582138       0.23430108      -0.00000000 </v>
     <v>       0.00000000       0.46860217       0.00000000 </v>
     <v>       0.00000000      -0.00000000       0.06666667 </v>
    </varray>
   </crystal>
   <varray name="positions" >
    <v>       0.00000000       0.00000000       0.14475063 </v>
    <v>       0.66666698       0.33333300       0.14475063 </v>
   </varray>
  </structure>
  <varray name="forces" >
   <v>      -0.00000000       0.00000000      -0.00000000 </v>
   <v>       0.00000000      -0.00000000       0.00000000 </v>
  </varray>
  <varray name="stress" >
   <v>      30.96680757       0.00000000       0.00000000 </v>
   <v>       0.00000000      30.96680757       0.00000000 </v>
   <v>       0.00000000       0.00000000      10.40027769 </v>
  </varray>
  <energy>
   <i name="e_fr_energy">    -17.33657895 </i>
   <i name="e_wo_entrp">    -17.33645359 </i>
   <i name="e_0_energy">     -0.00025072 </i>
  </energy>
  <time name="totalsc">   24.03   24.41</time>
  <eigenvalues>
   <array>
    <dimension dim="1">band</dimension>
    <dimension dim="2">kpoint</dimension>
    <dimension dim="3">spin</dimension>
    <field>eigene</field>
    <field>occ</field>
    <set>
     <set comment="spin 1">
      <set comment="kpoint 1">
       <r>  -21.7799    1.0000 </r>
       <r>   -9.8751    1.0000 </r>
       <r>   -5.2698    1.0000 </r>
       <r>   -5.2697    1.0000 </r>
       <r>    1.0049    0.0000 </r>
       <r>    1.9039    0.0000 </r>
       <r>    2.4219    0.0000 </r>
       <r>    4.2937    0.0000 </r>
       <r>    5.0977    0.0000 </r>
       <r>    6.1192    0.0000 </r>
       <r>    6.1192    0.0000 </r>
       <r>    8.2197    0.0000 </r>
       <r>    9.2375    0.0000 </r>
       <r>    9.3293    0.0000 </r>
       <r>   10.2989    0.0000 </r>
       <r>   13.5452    0.0000 </r>
      </set>
      <set comment="kpoint 2">
       <r>  -21.7729    1.0000 </r>
       <r>   -9.8667    1.0000 </r>
       <r>   -5.2996    1.0000 </r>
       <r>   -5.2851    1.0000 </r>
       <r>    1.0144    0.0000 </r>
       <r>    1.9135    0.0000 </r>
       <r>    2.4317    0.0000 </r>
       <r>    4.3033    0.0000 </r>
       <r>    5.1071    0.0000 </r>
       <r>    6.1254    0.0000 </r>
       <r>    6.1509    0.0000 </r>
       <r>    8.2291    0.0000 </r>
       <r>    9.2143    0.0000 </r>
       <r>    9.3390    0.0000 </r>
       <r>   10.3114    0.0000 </r>
       <r>   13.5539    0.0000 </r>
      </set>
      <set comment="kpoint 3">
       <r>  -21.7518    1.0000 </r>
       <r>   -9.8415    1.0000 </r>
       <r>   -5.3873    1.0000 </r>
       <r>   -5.3316    1.0000 </r>
       <r>    1.0431    0.0000 </r>
       <r>    1.9425    0.0000 </r>
       <r>    2.4608    0.0000 </r>
       <r>    4.3320    0.0000 </r>
       <r>    5.1351    0.0000 </r>
       <r>    6.1397    0.0000 </r>
       <r>    6.2434    0.0000 </r>
       <r>    8.2570    0.0000 </r>
       <r>    9.1376    0.0000 </r>
       <r>    9.3680    0.0000 </r>
       <r>   10.3492    0.0000 </r>
       <r>   13.5798    0.0000 </r>
      </set>
      <set comment="kpoint 4">
       <r>  -21.7166    1.0000 </r>
       <r>   -9.7994    1.0000 </r>
       <r>   -5.5303    1.0000 </r>
       <r>   -5.4066    1.0000 </r>
       <r>    1.0909    0.0000 </r>
       <r>    1.9906    0.0000 </r>
       <r>    2.5095    0.0000 </r>
       <r>    4.3799    0.0000 </r>
       <r>    5.1818    0.0000 </r>
       <r>    6.1558    0.0000 </r>
       <r>    6.3947    0.0000 </r>
       <r>    8.3034    0.0000 </r>
       <r>    9.0145    0.0000 </r>
       <r>    9.4163    0.0000 </r>
       <r>   10.4138    0.0000 </r>
       <r>   13.6227    0.0000 </r>
      </set>
      <set comment="kpoint 5">
       <r>  -21.6674    1.0000 </r>
       <r>   -9.7403    1.0000 </r>
       <r>   -5.7251    1.0000 </r>
       <r>   -5.5077    1.0000 </r>
       <r>    1.1578    0.0000 </r>
       <r>    2.0582    0.0000 </r>
       <r>    2.5776    0.0000 </r>
       <r>    4.4470    0.0000 </r>
       <r>    5.2470    0.0000 </r>
       <r>    6.1740    0.0000 </r>
       <r>    6.6046    0.0000 </r>
       <r>    8.3685    0.0000 </r>
       <r>    8.8452    0.0000 </r>
       <r>    9.4838    0.0000 </r>
       <r>   10.5068    0.0000 </r>
       <r>   13.6829    0.0000 </r>
      </set>
      <set comment="kpoint 6">
       <r>  -21.6041    1.0000 </r>
       <r>   -9.6649    1.0000 </r>
       <r>   -5.9669    1.0000 </r>
       <r>   -5.6324    1.0000 </r>
       <r>    1.2438    0.0000 </r>
       <r>    2.1449    0.0000 </r>
       <r>    2.6651    0.0000 </r>
       <r>    4.5331    0.0000 </r>
       <r>    5.3308    0.0000 </r>
       <r>    6.1911    0.0000 </r>
       <r>    6.8664    0.0000 </r>
       <r>    8.4511    0.0000 </r>
       <r>    8.6312    0.0000 </r>
       <r>    9.5704    0.0000 </r>
       <r>   10.6297    0.0000 </r>
       <r>   13.7593    0.0000 </r>
      </set>
      <set comment="kpoint 7">
       <r>  -21.5269    1.0000 </r>
       <r>   -9.5729    1.0000 </r>
       <r>   -6.2508    1.0000 </r>
       <r>   -5.7756    1.0000 </r>
       <r>    1.3490    0.0000 </r>
       <r>    2.2508    0.0000 </r>
       <r>    2.7721    0.0000 </r>
       <r>    4.6382    0.0000 </r>
       <r>    5.4327    0.0000 </r>
       <r>    6.2022    0.0000 </r>
       <r>    7.1778    0.0000 </r>
       <r>    8.3740    0.0000 </r>
       <r>    8.5563    0.0000 </r>
       <r>    9.6758    0.0000 </r>
       <r>   10.7837    0.0000 </r>
       <r>   13.8519    0.0000 </r>
      </set>
      <set comment="kpoint 8">
       <r>  -21.4356    1.0000 </r>
       <r>   -9.4644    1.0000 </r>
       <r>   -6.5709    1.0000 </r>
       <r>   -5.9342    1.0000 </r>
       <r>    1.4732    0.0000 </r>
       <r>    2.3759    0.0000 </r>
       <r>    2.8986    0.0000 </r>
       <r>    4.7623    0.0000 </r>
       <r>    5.5519    0.0000 </r>
       <r>    6.2051    0.0000 </r>
       <r>    7.5321    0.0000 </r>
       <r>    8.0847    0.0000 </r>
       <r>    8.6757    0.0000 </r>
       <r>    9.7999    0.0000 </r>
       <r>   10.9688    0.0000 </r>
       <r>   13.9601    0.0000 </r>
      </set>
      <set comment="kpoint 9">
       <r>  -21.3305    1.0000 </r>
       <r>   -9.3394    1.0000 </r>
       <r>   -6.9230    1.0000 </r>
       <r>   -6.1043    1.0000 </r>
       <r>    1.6166    0.0000 </r>
       <r>    2.5201    0.0000 </r>
       <r>    3.0445    0.0000 </r>
       <r>    4.9054    0.0000 </r>
       <r>    5.6863    0.0000 </r>
       <r>    6.1993    0.0000 </r>
       <r>    7.7606    0.0000 </r>
       <r>    7.9303    0.0000 </r>
       <r>    8.8142    0.0000 </r>
       <r>    9.9427    0.0000 </r>
       <r>   11.1815    0.0000 </r>
       <r>   14.0834    0.0000 </r>
      </set>
      <set comment="kpoint 10">
       <r>  -21.2115    1.0000 </r>
       <r>   -9.1985    1.0000 </r>
       <r>   -7.3023    1.0000 </r>
       <r>   -6.2830    1.0000 </r>
       <r>    1.7790    0.0000 </r>
       <r>    2.6834    0.0000 </r>
       <r>    3.2099    0.0000 </r>
       <r>    5.0670    0.0000 </r>
       <r>    5.8284    0.0000 </r>
       <r>    6.1909    0.0000 </r>
       <r>    7.4027    0.0000 </r>
       <r>    8.3635    0.0000 </r>
       <r>    8.9709    0.0000 </r>
       <r>   10.1039    0.0000 </r>
       <r>   11.4197    0.0000 </r>
       <r>   14.2205    0.0000 </r>
      </set>
      <set comment="kpoint 11">
       <r>  -21.0787    1.0000 </r>
       <r>   -9.0414    1.0000 </r>
       <r>   -7.7026    1.0000 </r>
       <r>   -6.4665    1.0000 </r>
       <r>    1.9605    0.0000 </r>
       <r>    2.8656    0.0000 </r>
       <r>    3.3947    0.0000 </r>
       <r>    5.2469    0.0000 </r>
       <r>    5.9499    0.0000 </r>
       <r>    6.2127    0.0000 </r>
       <r>    7.0206    0.0000 </r>
       <r>    8.8333    0.0000 </r>
       <r>    9.1457    0.0000 </r>
       <r>   10.2837    0.0000 </r>
       <r>   11.6802    0.0000 </r>
       <r>   14.3706    0.0000 </r>
      </set>
      <set comment="kpoint 12">
       <r>  -20.9322    1.0000 </r>
       <r>   -8.8685    1.0000 </r>
       <r>   -8.1208    1.0000 </r>
       <r>   -6.6526    1.0000 </r>
       <r>    2.1610    0.0000 </r>
       <r>    3.0667    0.0000 </r>
       <r>    3.5989    0.0000 </r>
       <r>    5.4436    0.0000 </r>
       <r>    5.9889    0.0000 </r>
       <r>    6.3269    0.0000 </r>
       <r>    6.6180    0.0000 </r>
       <r>    9.3281    0.0000 </r>
       <r>    9.3385    0.0000 </r>
       <r>   10.4818    0.0000 </r>
       <r>   11.9567    0.0000 </r>
       <r>   14.5319    0.0000 </r>
      </set>
      <set comment="kpoint 13">
       <r>  -20.7720    1.0000 </r>
       <r>   -8.6801    1.0000 </r>
       <r>   -8.5526    1.0000 </r>
       <r>   -6.8388    1.0000 </r>
       <r>    2.3804    0.0000 </r>
       <r>    3.2862    0.0000 </r>
       <r>    3.8225    0.0000 </r>
       <r>    5.6492    0.0000 </r>
       <r>    5.9609    0.0000 </r>
       <r>    6.2037    0.0000 </r>
       <r>    6.5174    0.0000 </r>
       <r>    9.5486    0.0000 </r>
       <r>    9.8497    0.0000 </r>
       <r>   10.6983    0.0000 </r>
       <r>   12.2432    0.0000 </r>
       <r>   14.7011    0.0000 </r>
      </set>
      <set comment="kpoint 14">
       <r>  -20.5982    1.0000 </r>
       <r>   -8.9944    1.0000 </r>
       <r>   -8.4767    1.0000 </r>
       <r>   -7.0217    1.0000 </r>
       <r>    2.6189    0.0000 </r>
       <r>    3.5233    0.0000 </r>
       <r>    4.0654    0.0000 </r>
       <r>    5.6765    0.0000 </r>
       <r>    5.9111    0.0000 </r>
       <r>    5.9715    0.0000 </r>
       <r>    6.7445    0.0000 </r>
       <r>    9.7761    0.0000 </r>
       <r>   10.3926    0.0000 </r>
       <r>   10.9333    0.0000 </r>
       <r>   12.5379    0.0000 </r>
       <r>   14.8745    0.0000 </r>
      </set>
      <set comment="kpoint 15">
       <r>  -20.4110    1.0000 </r>
       <r>   -9.4444    1.0000 </r>
       <r>   -8.2586    1.0000 </r>
       <r>   -7.2006    1.0000 </r>
       <r>    2.8762    0.0000 </r>
       <r>    3.7758    0.0000 </r>
       <r>    4.3276    0.0000 </r>
       <r>    5.2655    0.0000 </r>
       <r>    5.8509    0.0000 </r>
       <r>    6.1861    0.0000 </r>
       <r>    6.9962    0.0000 </r>
       <r>   10.0204    0.0000 </r>
       <r>   10.9528    0.0000 </r>
       <r>   11.1865    0.0000 </r>
       <r>   12.8249    0.0000 </r>
       <r>   15.0454    0.0000 </r>
      </set>
      <set comment="kpoint 16">
       <r>  -20.2105    1.0000 </r>
       <r>   -9.8994    1.0000 </r>
       <r>   -8.0268    1.0000 </r>
       <r>   -7.3734    1.0000 </r>
       <r>    3.1522    0.0000 </r>
       <r>    4.0330    0.0000 </r>
       <r>    4.6087    0.0000 </r>
       <r>    4.8222    0.0000 </r>
       <r>    5.7855    0.0000 </r>
       <r>    6.4551    0.0000 </r>
       <r>    7.2693    0.0000 </r>
       <r>   10.2806    0.0000 </r>
       <r>   11.4578    0.0000 </r>
       <r>   11.5276    0.0000 </r>
       <r>   13.0986    0.0000 </r>
       <r>   15.2018    0.0000 </r>
      </set>
      <set comment="kpoint 17">
       <r>  -19.9968    1.0000 </r>
       <r>  -10.3568    1.0000 </r>
       <r>   -7.7810    1.0000 </r>
       <r>   -7.5387    1.0000 </r>
       <r>    3.4468    0.0000 </r>
       <r>    4.1554    0.0000 </r>
       <r>    4.5217    0.0000 </r>
       <r>    4.9082    0.0000 </r>
       <r>    5.7191    0.0000 </r>
       <r>    6.7469    0.0000 </r>
       <r>    7.5626    0.0000 </r>
       <r>   10.5567    0.0000 </r>
       <r>   11.7472    0.0000 </r>
       <r>   12.1155    0.0000 </r>
       <r>   13.3440    0.0000 </r>
       <r>   15.3260    0.0000 </r>
      </set>
      <set comment="kpoint 18">
       <r>  -19.7700    1.0000 </r>
       <r>  -10.8153    1.0000 </r>
       <r>   -7.6954    1.0000 </r>
       <r>   -7.5224    1.0000 </r>
       <r>    3.7599    0.0000 </r>
       <r>    3.7853    0.0000 </r>
       <r>    4.7260    0.0000 </r>
       <r>    5.2230    0.0000 </r>
       <r>    5.6581    0.0000 </r>
       <r>    7.0584    0.0000 </r>
       <r>    7.8754    0.0000 </r>
       <r>   10.8475    0.0000 </r>
       <r>   12.0543    0.0000 </r>
       <r>   12.7098    0.0000 </r>
       <r>   13.5350    0.0000 </r>
       <r>   15.3845    0.0000 </r>
      </set>
      <set comment="kpoint 19">
       <r>  -19.5304    1.0000 </r>
       <r>  -11.2731    1.0000 </r>
       <r>   -7.8425    1.0000 </r>
       <r>   -7.2514    1.0000 </r>
       <r>    3.3177    0.0000 </r>
       <r>    4.0910    0.0000 </r>
       <r>    5.0445    0.0000 </r>
       <r>    5.5033    0.0000 </r>
       <r>    5.6528    0.0000 </r>
       <r>    7.3888    0.0000 </r>
       <r>    8.2075    0.0000 </r>
       <r>   11.1518    0.0000 </r>
       <r>   12.3790    0.0000 </r>
       <r>   13.3095    0.0000 </r>
       <r>   13.6443    0.0000 </r>
       <r>   15.3316    0.0000 </r>
      </set>
      <set comment="kpoint 20">
       <r>  -19.2783    1.0000 </r>
       <r>  -11.7280    1.0000 </r>
       <r>   -7.9793    1.0000 </r>
       <r>   -6.9709    1.0000 </r>
       <r>    2.8406    0.0000 </r>
       <r>    4.4390    0.0000 </r>
       <r>    5.3921    0.0000 </r>
       <r>    5.5058    0.0000 </r>
       <r>    5.9495    0.0000 </r>
       <r>    7.7373    0.0000 </r>
       <r>    8.5584    0.0000 </r>
       <r>   11.4668    0.0000 </r>
       <r>   12.7199    0.0000 </r>
       <r>   13.6372    0.0000 </r>
       <r>   13.9049    0.0000 </r>
       <r>   15.1335    0.0000 </r>
      </set>
      <set comment="kpoint 21">
       <r>  -19.0140    1.0000 </r>
       <r>  -12.1789    1.0000 </r>
       <r>   -8.1046    1.0000 </r>
       <r>   -6.6814    1.0000 </r>
       <r>    2.3674    0.0000 </r>
       <r>    4.8004    0.0000 </r>
       <r>    5.4598    0.0000 </r>
       <r>    5.7612    0.0000 </r>
       <r>    6.3222    0.0000 </r>
       <r>    8.1037    0.0000 </r>
       <r>    8.9280    0.0000 </r>
       <r>   11.7893    0.0000 </r>
       <r>   13.0725    0.0000 </r>
       <r>   13.4864    0.0000 </r>
       <r>   14.4922    0.0000 </r>
       <r>   14.8043    0.0000 </r>
      </set>
      <set comment="kpoint 22">
       <r>  -18.7377    1.0000 </r>
       <r>  -12.6244    1.0000 </r>
       <r>   -8.2185    1.0000 </r>
       <r>   -6.3856    1.0000 </r>
       <r>    1.9013    0.0000 </r>
       <r>    5.1506    0.0000 </r>
       <r>    5.4435    0.0000 </r>
       <r>    6.1497    0.0000 </r>
       <r>    6.7185    0.0000 </r>
       <r>    8.4874    0.0000 </r>
       <r>    9.3162    0.0000 </r>
       <r>   12.1115    0.0000 </r>
       <r>   13.1511    0.0000 </r>
       <r>   13.4766    0.0000 </r>
       <r>   14.3871    0.0000 </r>
       <r>   15.0616    0.0000 </r>
      </set>
      <set comment="kpoint 23">
       <r>  -18.4502    1.0000 </r>
       <r>  -13.0631    1.0000 </r>
       <r>   -8.3200    1.0000 </r>
       <r>   -6.0868    1.0000 </r>
       <r>    1.4483    0.0000 </r>
       <r>    5.2899    0.0000 </r>
       <r>    5.6607    0.0000 </r>
       <r>    6.5569    0.0000 </r>
       <r>    7.1352    0.0000 </r>
       <r>    8.8878    0.0000 </r>
       <r>    9.7225    0.0000 </r>
       <r>   12.4141    0.0000 </r>
       <r>   12.7396    0.0000 </r>
       <r>   13.8567    0.0000 </r>
       <r>   13.9329    0.0000 </r>
       <r>   14.8851    0.0000 </r>
      </set>
      <set comment="kpoint 24">
       <r>  -18.1523    1.0000 </r>
       <r>  -13.4933    1.0000 </r>
       <r>   -8.4087    1.0000 </r>
       <r>   -5.7889    1.0000 </r>
       <r>    1.0145    0.0000 </r>
       <r>    5.2695    0.0000 </r>
       <r>    6.0608    0.0000 </r>
       <r>    6.9821    0.0000 </r>
       <r>    7.5715    0.0000 </r>
       <r>    9.3042    0.0000 </r>
       <r>   10.1467    0.0000 </r>
       <r>   12.2457    0.0000 </r>
       <r>   12.6215    0.0000 </r>
       <r>   13.5343    0.0000 </r>
       <r>   14.2220    0.0000 </r>
       <r>   14.2809    0.0000 </r>
      </set>
      <set comment="kpoint 25">
       <r>  -17.8452    1.0000 </r>
       <r>  -13.9133    1.0000 </r>
       <r>   -8.4846    1.0000 </r>
       <r>   -5.4986    1.0000 </r>
       <r>    0.6068    0.0000 </r>
       <r>    5.2379    0.0000 </r>
       <r>    6.4964    0.0000 </r>
       <r>    7.4249    0.0000 </r>
       <r>    8.0273    0.0000 </r>
       <r>    9.7351    0.0000 </r>
       <r>   10.5879    0.0000 </r>
       <r>   11.7115    0.0000 </r>
       <r>   12.4907    0.0000 </r>
       <r>   13.4329    0.0000 </r>
       <r>   13.5993    0.0000 </r>
       <r>   14.6815    0.0000 </r>
      </set>
      <set comment="kpoint 26">
       <r>  -17.5315    1.0000 </r>
       <r>  -14.3202    1.0000 </r>
       <r>   -8.5468    1.0000 </r>
       <r>   -5.2244    1.0000 </r>
       <r>    0.2362    0.0000 </r>
       <r>    5.2084    0.0000 </r>
       <r>    6.9530    0.0000 </r>
       <r>    7.8847    0.0000 </r>
       <r>    8.5022    0.0000 </r>
       <r>   10.1774    0.0000 </r>
       <r>   11.0328    0.0000 </r>
       <r>   11.1724    0.0000 </r>
       <r>   12.0532    0.0000 </r>
       <r>   12.9679    0.0000 </r>
       <r>   13.5514    0.0000 </r>
       <r>   14.5698    0.0000 </r>
      </set>
      <set comment="kpoint 27">
       <r>  -17.2158    1.0000 </r>
       <r>  -14.7086    1.0000 </r>
       <r>   -8.5956    1.0000 </r>
       <r>   -4.9802    1.0000 </r>
       <r>   -0.0845    0.0000 </r>
       <r>    5.1847    0.0000 </r>
       <r>    7.4279    0.0000 </r>
       <r>    8.3603    0.0000 </r>
       <r>    8.9961    0.0000 </r>
       <r>   10.5958    0.0000 </r>
       <r>   10.6187    0.0000 </r>
       <r>   11.5265    0.0000 </r>
       <r>   11.5496    0.0000 </r>
       <r>   12.3498    0.0000 </r>
       <r>   13.4849    0.0000 </r>
       <r>   14.4166    0.0000 </r>
      </set>
      <set comment="kpoint 28">
       <r>  -16.9099    1.0000 </r>
       <r>  -15.0666    1.0000 </r>
       <r>   -8.6305    1.0000 </r>
       <r>   -4.7825    1.0000 </r>
       <r>   -0.3370    0.0000 </r>
       <r>    5.1674    0.0000 </r>
       <r>    7.9194    0.0000 </r>
       <r>    8.8502    0.0000 </r>
       <r>    9.5079    0.0000 </r>
       <r>   10.0431    0.0000 </r>
       <r>   10.8519    0.0000 </r>
       <r>   11.2467    0.0000 </r>
       <r>   11.7453    0.0000 </r>
       <r>   12.0186    0.0000 </r>
       <r>   13.1317    0.0000 </r>
       <r>   14.1057    0.0000 </r>
      </set>
      <set comment="kpoint 29">
       <r>  -16.6481    1.0000 </r>
       <r>  -15.3596    1.0000 </r>
       <r>   -8.6514    1.0000 </r>
       <r>   -4.6516    1.0000 </r>
       <r>   -0.5015    0.0000 </r>
       <r>    5.1574    0.0000 </r>
       <r>    8.4253    0.0000 </r>
       <r>    9.3498    0.0000 </r>
       <r>    9.4947    0.0000 </r>
       <r>   10.0431    0.0000 </r>
       <r>   10.4118    0.0000 </r>
       <r>   11.1605    0.0000 </r>
       <r>   11.6148    0.0000 </r>
       <r>   12.5228    0.0000 </r>
       <r>   12.6926    0.0000 </r>
       <r>   13.5721    0.0000 </r>
      </set>
      <set comment="kpoint 30">
       <r>  -16.5288    1.0000 </r>
       <r>  -15.4895    1.0000 </r>
       <r>   -8.6584    1.0000 </r>
       <r>   -4.6060    1.0000 </r>
       <r>   -0.5589    0.0000 </r>
       <r>    5.1536    0.0000 </r>
       <r>    8.8782    0.0000 </r>
       <r>    9.0294    0.0000 </r>
       <r>    9.7642    0.0000 </r>
       <r>    9.9942    0.0000 </r>
       <r>   10.5805    0.0000 </r>
       <r>   10.6042    0.0000 </r>
       <r>   11.9138    0.0000 </r>
       <r>   12.3879    0.0000 </r>
       <r>   13.0082    0.0000 </r>
       <r>   13.0767    0.0000 </r>
      </set>
      <set comment="kpoint 31">
       <r>  -16.5288    1.0000 </r>
       <r>  -15.4895    1.0000 </r>
       <r>   -8.6584    1.0000 </r>
       <r>   -4.6060    1.0000 </r>
       <r>   -0.5589    0.0000 </r>
       <r>    5.1536    0.0000 </r>
       <r>    8.8782    0.0000 </r>
       <r>    9.0294    0.0000 </r>
       <r>    9.7642    0.0000 </r>
       <r>    9.9942    0.0000 </r>
       <r>   10.5805    0.0000 </r>
       <r>   10.6042    0.0000 </r>
       <r>   11.9138    0.0000 </r>
       <r>   12.3879    0.0000 </r>
       <r>   13.0082    0.0000 </r>
       <r>   13.0767    0.0000 </r>
      </set>
      <set comment="kpoint 32">
       <r>  -16.5267    1.0000 </r>
       <r>  -15.4875    1.0000 </r>
       <r>   -8.6690    1.0000 </r>
       <r>   -4.6032    1.0000 </r>
       <r>   -0.5595    0.0000 </r>
       <r>    5.1680    0.0000 </r>
       <r>    8.8810    0.0000 </r>
       <r>    9.0324    0.0000 </r>
       <r>    9.7643    0.0000 </r>
       <r>    9.9974    0.0000 </r>
       <r>   10.5836    0.0000 </r>
       <r>   10.6074    0.0000 </r>
       <r>   11.9125    0.0000 </r>
       <r>   12.3911    0.0000 </r>
       <r>   13.0106    0.0000 </r>
       <r>   13.0796    0.0000 </r>
      </set>
      <set comment="kpoint 33">
       <r>  -16.5207    1.0000 </r>
       <r>  -15.4816    1.0000 </r>
       <r>   -8.7008    1.0000 </r>
       <r>   -4.5952    1.0000 </r>
       <r>   -0.5618    0.0000 </r>
       <r>    5.2110    0.0000 </r>
       <r>    8.8893    0.0000 </r>
       <r>    9.0411    0.0000 </r>
       <r>    9.7641    0.0000 </r>
       <r>   10.0070    0.0000 </r>
       <r>   10.5930    0.0000 </r>
       <r>   10.6169    0.0000 </r>
       <r>   11.9084    0.0000 </r>
       <r>   12.4007    0.0000 </r>
       <r>   13.0177    0.0000 </r>
       <r>   13.0880    0.0000 </r>
      </set>
      <set comment="kpoint 34">
       <r>  -16.5107    1.0000 </r>
       <r>  -15.4716    1.0000 </r>
       <r>   -8.7536    1.0000 </r>
       <r>   -4.5809    1.0000 </r>
       <r>   -0.5652    0.0000 </r>
       <r>    5.2822    0.0000 </r>
       <r>    8.9031    0.0000 </r>
       <r>    9.0558    0.0000 </r>
       <r>    9.7636    0.0000 </r>
       <r>   10.0231    0.0000 </r>
       <r>   10.6086    0.0000 </r>
       <r>   10.6328    0.0000 </r>
       <r>   11.9017    0.0000 </r>
       <r>   12.4167    0.0000 </r>
       <r>   13.0295    0.0000 </r>
       <r>   13.1021    0.0000 </r>
      </set>
      <set comment="kpoint 35">
       <r>  -16.4966    1.0000 </r>
       <r>  -15.4577    1.0000 </r>
       <r>   -8.8260    1.0000 </r>
       <r>   -4.5605    1.0000 </r>
       <r>   -0.5696    0.0000 </r>
       <r>    5.3809    0.0000 </r>
       <r>    8.9225    0.0000 </r>
       <r>    9.0765    0.0000 </r>
       <r>    9.7623    0.0000 </r>
       <r>   10.0457    0.0000 </r>
       <r>   10.6305    0.0000 </r>
       <r>   10.6550    0.0000 </r>
       <r>   11.8920    0.0000 </r>
       <r>   12.4393    0.0000 </r>
       <r>   13.0459    0.0000 </r>
       <r>   13.1220    0.0000 </r>
      </set>
      <set comment="kpoint 36">
       <r>  -16.4785    1.0000 </r>
       <r>  -15.4399    1.0000 </r>
       <r>   -8.9177    1.0000 </r>
       <r>   -4.5348    1.0000 </r>
       <r>   -0.5762    0.0000 </r>
       <r>    5.5057    0.0000 </r>
       <r>    8.9473    0.0000 </r>
       <r>    9.1029    0.0000 </r>
       <r>    9.7591    0.0000 </r>
       <r>   10.0747    0.0000 </r>
       <r>   10.6587    0.0000 </r>
       <r>   10.6836    0.0000 </r>
       <r>   11.8789    0.0000 </r>
       <r>   12.4683    0.0000 </r>
       <r>   13.0667    0.0000 </r>
       <r>   13.1473    0.0000 </r>
      </set>
      <set comment="kpoint 37">
       <r>  -16.4564    1.0000 </r>
       <r>  -15.4182    1.0000 </r>
       <r>   -9.0270    1.0000 </r>
       <r>   -4.5035    1.0000 </r>
       <r>   -0.5851    0.0000 </r>
       <r>    5.6552    0.0000 </r>
       <r>    8.9774    0.0000 </r>
       <r>    9.1351    0.0000 </r>
       <r>    9.7529    0.0000 </r>
       <r>   10.1102    0.0000 </r>
       <r>   10.6930    0.0000 </r>
       <r>   10.7185    0.0000 </r>
       <r>   11.8625    0.0000 </r>
       <r>   12.5037    0.0000 </r>
       <r>   13.0916    0.0000 </r>
       <r>   13.1781    0.0000 </r>
      </set>
      <set comment="kpoint 38">
       <r>  -16.4303    1.0000 </r>
       <r>  -15.3927    1.0000 </r>
       <r>   -9.1530    1.0000 </r>
       <r>   -4.4664    1.0000 </r>
       <r>   -0.5958    0.0000 </r>
       <r>    5.8287    0.0000 </r>
       <r>    9.0130    0.0000 </r>
       <r>    9.1732    0.0000 </r>
       <r>    9.7426    0.0000 </r>
       <r>   10.1521    0.0000 </r>
       <r>   10.7336    0.0000 </r>
       <r>   10.7598    0.0000 </r>
       <r>   11.8431    0.0000 </r>
       <r>   12.5455    0.0000 </r>
       <r>   13.1209    0.0000 </r>
       <r>   13.2145    0.0000 </r>
      </set>
      <set comment="kpoint 39">
       <r>  -16.4002    1.0000 </r>
       <r>  -15.3634    1.0000 </r>
       <r>   -9.2937    1.0000 </r>
       <r>   -4.4234    1.0000 </r>
       <r>   -0.6090    0.0000 </r>
       <r>    6.0246    0.0000 </r>
       <r>    9.0539    0.0000 </r>
       <r>    9.2170    0.0000 </r>
       <r>    9.7267    0.0000 </r>
       <r>   10.2005    0.0000 </r>
       <r>   10.7804    0.0000 </r>
       <r>   10.8073    0.0000 </r>
       <r>   11.8215    0.0000 </r>
       <r>   12.5938    0.0000 </r>
       <r>   13.1541    0.0000 </r>
       <r>   13.2563    0.0000 </r>
      </set>
      <set comment="kpoint 40">
       <r>  -16.3660    1.0000 </r>
       <r>  -15.3304    1.0000 </r>
       <r>   -9.4481    1.0000 </r>
       <r>   -4.3750    1.0000 </r>
       <r>   -0.6244    0.0000 </r>
       <r>    6.2407    0.0000 </r>
       <r>    9.1002    0.0000 </r>
       <r>    9.2666    0.0000 </r>
       <r>    9.7035    0.0000 </r>
       <r>   10.2553    0.0000 </r>
       <r>   10.8334    0.0000 </r>
       <r>   10.8612    0.0000 </r>
       <r>   11.7989    0.0000 </r>
       <r>   12.6485    0.0000 </r>
       <r>   13.1909    0.0000 </r>
       <r>   13.3033    0.0000 </r>
      </set>
      <set comment="kpoint 41">
       <r>  -16.3278    1.0000 </r>
       <r>  -15.2939    1.0000 </r>
       <r>   -9.6154    1.0000 </r>
       <r>   -4.3209    1.0000 </r>
       <r>   -0.6443    0.0000 </r>
       <r>    6.4753    0.0000 </r>
       <r>    9.1515    0.0000 </r>
       <r>    9.3217    0.0000 </r>
       <r>    9.6704    0.0000 </r>
       <r>   10.3165    0.0000 </r>
       <r>   10.8925    0.0000 </r>
       <r>   10.9214    0.0000 </r>
       <r>   11.7772    0.0000 </r>
       <r>   12.7096    0.0000 </r>
       <r>   13.2306    0.0000 </r>
       <r>   13.3555    0.0000 </r>
      </set>
      <set comment="kpoint 42">
       <r>  -16.2856    1.0000 </r>
       <r>  -15.2539    1.0000 </r>
       <r>   -9.7930    1.0000 </r>
       <r>   -4.2607    1.0000 </r>
       <r>   -0.6674    0.0000 </r>
       <r>    6.7270    0.0000 </r>
       <r>    9.2079    0.0000 </r>
       <r>    9.3826    0.0000 </r>
       <r>    9.6271    0.0000 </r>
       <r>   10.3843    0.0000 </r>
       <r>   10.9577    0.0000 </r>
       <r>   10.9878    0.0000 </r>
       <r>   11.7594    0.0000 </r>
       <r>   12.7772    0.0000 </r>
       <r>   13.2731    0.0000 </r>
       <r>   13.4129    0.0000 </r>
      </set>
      <set comment="kpoint 43">
       <r>  -16.2394    1.0000 </r>
       <r>  -15.2106    1.0000 </r>
       <r>   -9.9797    1.0000 </r>
       <r>   -4.1951    1.0000 </r>
       <r>   -0.6947    0.0000 </r>
       <r>    6.9942    0.0000 </r>
       <r>    9.2692    0.0000 </r>
       <r>    9.4491    0.0000 </r>
       <r>    9.5719    0.0000 </r>
       <r>   10.4584    0.0000 </r>
       <r>   11.0289    0.0000 </r>
       <r>   11.0605    0.0000 </r>
       <r>   11.7481    0.0000 </r>
       <r>   12.8512    0.0000 </r>
       <r>   13.3179    0.0000 </r>
       <r>   13.4752    0.0000 </r>
      </set>
      <set comment="kpoint 44">
       <r>  -16.1893    1.0000 </r>
       <r>  -15.1644    1.0000 </r>
       <r>  -10.1746    1.0000 </r>
       <r>   -4.1241    1.0000 </r>
       <r>   -0.7268    0.0000 </r>
       <r>    7.2741    0.0000 </r>
       <r>    9.3351    0.0000 </r>
       <r>    9.5047    0.0000 </r>
       <r>    9.5208    0.0000 </r>
       <r>   10.5390    0.0000 </r>
       <r>   11.1062    0.0000 </r>
       <r>   11.1394    0.0000 </r>
       <r>   11.7459    0.0000 </r>
       <r>   12.9315    0.0000 </r>
       <r>   13.3636    0.0000 </r>
       <r>   13.5419    0.0000 </r>
      </set>
      <set comment="kpoint 45">
       <r>  -16.1351    1.0000 </r>
       <r>  -15.1154    1.0000 </r>
       <r>  -10.3759    1.0000 </r>
       <r>   -4.0475    1.0000 </r>
       <r>   -0.7651    0.0000 </r>
       <r>    7.5646    0.0000 </r>
       <r>    9.4056    0.0000 </r>
       <r>    9.4256    0.0000 </r>
       <r>    9.5979    0.0000 </r>
       <r>   10.6259    0.0000 </r>
       <r>   11.1893    0.0000 </r>
       <r>   11.2245    0.0000 </r>
       <r>   11.7550    0.0000 </r>
       <r>   13.0183    0.0000 </r>
       <r>   13.4098    0.0000 </r>
       <r>   13.6128    0.0000 </r>
      </set>
      <set comment="kpoint 46">
       <r>  -16.0769    1.0000 </r>
       <r>  -15.0638    1.0000 </r>
       <r>  -10.5820    1.0000 </r>
       <r>   -3.9652    1.0000 </r>
       <r>   -0.8082    0.0000 </r>
       <r>    7.8652    0.0000 </r>
       <r>    9.3373    0.0000 </r>
       <r>    9.4805    0.0000 </r>
       <r>    9.6804    0.0000 </r>
       <r>   10.7193    0.0000 </r>
       <r>   11.2784    0.0000 </r>
       <r>   11.3157    0.0000 </r>
       <r>   11.7770    0.0000 </r>
       <r>   13.1115    0.0000 </r>
       <r>   13.4557    0.0000 </r>
       <r>   13.6879    0.0000 </r>
      </set>
      <set comment="kpoint 47">
       <r>  -16.0147    1.0000 </r>
       <r>  -15.0102    1.0000 </r>
       <r>  -10.7916    1.0000 </r>
       <r>   -3.8773    1.0000 </r>
       <r>   -0.8574    0.0000 </r>
       <r>    8.1733    0.0000 </r>
       <r>    9.2416    0.0000 </r>
       <r>    9.5594    0.0000 </r>
       <r>    9.7682    0.0000 </r>
       <r>   10.8192    0.0000 </r>
       <r>   11.3731    0.0000 </r>
       <r>   11.4131    0.0000 </r>
       <r>   11.8122    0.0000 </r>
       <r>   13.2111    0.0000 </r>
       <r>   13.5000    0.0000 </r>
       <r>   13.7666    0.0000 </r>
      </set>
      <set comment="kpoint 48">
       <r>  -15.9485    1.0000 </r>
       <r>  -14.9550    1.0000 </r>
       <r>  -11.0036    1.0000 </r>
       <r>   -3.7842    1.0000 </r>
       <r>   -0.9140    0.0000 </r>
       <r>    8.4851    0.0000 </r>
       <r>    9.1409    0.0000 </r>
       <r>    9.6419    0.0000 </r>
       <r>    9.8613    0.0000 </r>
       <r>   10.9253    0.0000 </r>
       <r>   11.4735    0.0000 </r>
       <r>   11.5165    0.0000 </r>
       <r>   11.8606    0.0000 </r>
       <r>   13.3170    0.0000 </r>
       <r>   13.5416    0.0000 </r>
       <r>   13.8484    0.0000 </r>
      </set>
      <set comment="kpoint 49">
       <r>  -15.8783    1.0000 </r>
       <r>  -14.8991    1.0000 </r>
       <r>  -11.2161    1.0000 </r>
       <r>   -3.6852    1.0000 </r>
       <r>   -0.9775    0.0000 </r>
       <r>    8.7994    0.0000 </r>
       <r>    9.0384    0.0000 </r>
       <r>    9.7279    0.0000 </r>
       <r>    9.9597    0.0000 </r>
       <r>   11.0380    0.0000 </r>
       <r>   11.5793    0.0000 </r>
       <r>   11.6259    0.0000 </r>
       <r>   11.9218    0.0000 </r>
       <r>   13.4294    0.0000 </r>
       <r>   13.5800    0.0000 </r>
       <r>   13.9324    0.0000 </r>
      </set>
      <set comment="kpoint 50">
       <r>  -15.8042    1.0000 </r>
       <r>  -14.8432    1.0000 </r>
       <r>  -11.4276    1.0000 </r>
       <r>   -3.5808    1.0000 </r>
       <r>   -1.0492    0.0000 </r>
       <r>    8.9370    0.0000 </r>
       <r>    9.1108    0.0000 </r>
       <r>    9.8167    0.0000 </r>
       <r>   10.0643    0.0000 </r>
       <r>   11.1570    0.0000 </r>
       <r>   11.6903    0.0000 </r>
       <r>   11.7413    0.0000 </r>
       <r>   11.9948    0.0000 </r>
       <r>   13.5481    0.0000 </r>
       <r>   13.6136    0.0000 </r>
       <r>   14.0181    0.0000 </r>
      </set>
      <set comment="kpoint 51">
       <r>  -15.7260    1.0000 </r>
       <r>  -14.7885    1.0000 </r>
       <r>  -11.6361    1.0000 </r>
       <r>   -3.4708    1.0000 </r>
       <r>   -1.1297    0.0000 </r>
       <r>    8.8391    0.0000 </r>
       <r>    9.4147    0.0000 </r>
       <r>    9.9079    0.0000 </r>
       <r>   10.1763    0.0000 </r>
       <r>   11.2825    0.0000 </r>
       <r>   11.8064    0.0000 </r>
       <r>   11.8626    0.0000 </r>
       <r>   12.0786    0.0000 </r>
       <r>   13.6431    0.0000 </r>
       <r>   13.6733    0.0000 </r>
       <r>   14.1041    0.0000 </r>
      </set>
      <set comment="kpoint 52">
       <r>  -15.6440    1.0000 </r>
       <r>  -14.7368    1.0000 </r>
       <r>  -11.8394    1.0000 </r>
       <r>   -3.3548    1.0000 </r>
       <r>   -1.2179    0.0000 </r>
       <r>    8.7473    0.0000 </r>
       <r>    9.7038    0.0000 </r>
       <r>   10.0009    0.0000 </r>
       <r>   10.2984    0.0000 </r>
       <r>   11.4144    0.0000 </r>
       <r>   11.9271    0.0000 </r>
       <r>   11.9897    0.0000 </r>
       <r>   12.1722    0.0000 </r>
       <r>   13.6677    0.0000 </r>
       <r>   13.8049    0.0000 </r>
       <r>   14.1879    0.0000 </r>
      </set>
      <set comment="kpoint 53">
       <r>  -15.5580    1.0000 </r>
       <r>  -14.6904    1.0000 </r>
       <r>  -12.0347    1.0000 </r>
       <r>   -3.2342    1.0000 </r>
       <r>   -1.3153    0.0000 </r>
       <r>    8.6633    0.0000 </r>
       <r>    9.9646    0.0000 </r>
       <r>   10.0945    0.0000 </r>
       <r>   10.4365    0.0000 </r>
       <r>   11.5526    0.0000 </r>
       <r>   12.0519    0.0000 </r>
       <r>   12.1223    0.0000 </r>
       <r>   12.2743    0.0000 </r>
       <r>   13.6886    0.0000 </r>
       <r>   13.9427    0.0000 </r>
       <r>   14.2644    0.0000 </r>
      </set>
      <set comment="kpoint 54">
       <r>  -15.4680    1.0000 </r>
       <r>  -14.6521    1.0000 </r>
       <r>  -12.2184    1.0000 </r>
       <r>   -3.1078    1.0000 </r>
       <r>   -1.4214    0.0000 </r>
       <r>    8.5888    0.0000 </r>
       <r>   10.1860    0.0000 </r>
       <r>   10.1880    0.0000 </r>
       <r>   10.5973    0.0000 </r>
       <r>   11.6972    0.0000 </r>
       <r>   12.1804    0.0000 </r>
       <r>   12.2603    0.0000 </r>
       <r>   12.3833    0.0000 </r>
       <r>   13.7072    0.0000 </r>
       <r>   14.0870    0.0000 </r>
       <r>   14.3119    0.0000 </r>
      </set>
      <set comment="kpoint 55">
       <r>  -15.3740    1.0000 </r>
       <r>  -14.6261    1.0000 </r>
       <r>  -12.3861    1.0000 </r>
       <r>   -2.9770    1.0000 </r>
       <r>   -1.5368    0.0000 </r>
       <r>    8.5248    0.0000 </r>
       <r>   10.2805    0.0000 </r>
       <r>   10.3583    0.0000 </r>
       <r>   10.7774    0.0000 </r>
       <r>   11.8480    0.0000 </r>
       <r>   12.3119    0.0000 </r>
       <r>   12.4029    0.0000 </r>
       <r>   12.4969    0.0000 </r>
       <r>   13.7275    0.0000 </r>
       <r>   14.2329    0.0000 </r>
       <r>   14.2373    0.0000 </r>
      </set>
      <set comment="kpoint 56">
       <r>  -15.2761    1.0000 </r>
       <r>  -14.6174    1.0000 </r>
       <r>  -12.5326    1.0000 </r>
       <r>   -2.8401    1.0000 </r>
       <r>   -1.6613    0.0000 </r>
       <r>    8.4722    0.0000 </r>
       <r>   10.3707    0.0000 </r>
       <r>   10.4903    0.0000 </r>
       <r>   10.9547    0.0000 </r>
       <r>   12.0053    0.0000 </r>
       <r>   12.4454    0.0000 </r>
       <r>   12.5491    0.0000 </r>
       <r>   12.6114    0.0000 </r>
       <r>   13.7515    0.0000 </r>
       <r>   13.9947    0.0000 </r>
       <r>   14.2907    0.0000 </r>
      </set>
      <set comment="kpoint 57">
       <r>  -15.1743    1.0000 </r>
       <r>  -14.6312    1.0000 </r>
       <r>  -12.6518    1.0000 </r>
       <r>   -2.6979    1.0000 </r>
       <r>   -1.7928    0.0000 </r>
       <r>    8.4316    0.0000 </r>
       <r>   10.4569    0.0000 </r>
       <r>   10.5928    0.0000 </r>
       <r>   11.1043    0.0000 </r>
       <r>   12.1690    0.0000 </r>
       <r>   12.5800    0.0000 </r>
       <r>   12.6963    0.0000 </r>
       <r>   12.7194    0.0000 </r>
       <r>   13.7432    0.0000 </r>
       <r>   13.7828    0.0000 </r>
       <r>   14.0576    0.0000 </r>
      </set>
      <set comment="kpoint 58">
       <r>  -15.0687    1.0000 </r>
       <r>  -14.6725    1.0000 </r>
       <r>  -12.7390    1.0000 </r>
       <r>   -2.5504    1.0000 </r>
       <r>   -1.9340    0.0000 </r>
       <r>    8.4030    0.0000 </r>
       <r>   10.5372    0.0000 </r>
       <r>   10.6653    0.0000 </r>
       <r>   11.2060    0.0000 </r>
       <r>   12.3390    0.0000 </r>
       <r>   12.7142    0.0000 </r>
       <r>   12.8025    0.0000 </r>
       <r>   12.8393    0.0000 </r>
       <r>   13.5177    0.0000 </r>
       <r>   13.8106    0.0000 </r>
       <r>   13.8252    0.0000 </r>
      </set>
      <set comment="kpoint 59">
       <r>  -14.9591    1.0000 </r>
       <r>  -14.7441    1.0000 </r>
       <r>  -12.7907    1.0000 </r>
       <r>   -2.3978    1.0000 </r>
       <r>   -2.0826    0.0000 </r>
       <r>    8.3863    0.0000 </r>
       <r>   10.6103    0.0000 </r>
       <r>   10.6987    0.0000 </r>
       <r>   11.2555    0.0000 </r>
       <r>   12.5153    0.0000 </r>
       <r>   12.8159    0.0000 </r>
       <r>   12.8472    0.0000 </r>
       <r>   12.9643    0.0000 </r>
       <r>   13.3181    0.0000 </r>
       <r>   13.6187    0.0000 </r>
       <r>   13.8829    0.0000 </r>
      </set>
      <set comment="kpoint 60">
       <r>  -14.8456    1.0000 </r>
       <r>  -14.8455    1.0000 </r>
       <r>  -12.8074    1.0000 </r>
       <r>   -2.2393    0.5060 </r>
       <r>   -2.2391    0.4940 </r>
       <r>    8.3809    0.0000 </r>
       <r>   10.6746    0.0000 </r>
       <r>   10.6747    0.0000 </r>
       <r>   11.2664    0.0000 </r>
       <r>   12.6975    0.0000 </r>
       <r>   12.6988    0.0000 </r>
       <r>   12.9757    0.0000 </r>
       <r>   12.9815    0.0000 </r>
       <r>   13.1994    0.0000 </r>
       <r>   13.5527    0.0000 </r>
       <r>   13.9578    0.0000 </r>
      </set>
      <set comment="kpoint 61">
       <r>  -14.8456    1.0000 </r>
       <r>  -14.8455    1.0000 </r>
       <r>  -12.8074    1.0000 </r>
       <r>   -2.2393    0.5060 </r>
       <r>   -2.2391    0.4940 </r>
       <r>    8.3809    0.0000 </r>
       <r>   10.6746    0.0000 </r>
       <r>   10.6747    0.0000 </r>
       <r>   11.2664    0.0000 </r>
       <r>   12.6975    0.0000 </r>
       <r>   12.6988    0.0000 </r>
       <r>   12.9757    0.0000 </r>
       <r>   12.9815    0.0000 </r>
       <r>   13.1994    0.0000 </r>
       <r>   13.5527    0.0000 </r>
       <r>   13.9575    0.0000 </r>
      </set>
      <set comment="kpoint 62">
       <r>  -15.1229    1.0000 </r>
       <r>  -14.6070    1.0000 </r>
       <r>  -12.7498    1.0000 </r>
       <r>   -2.5737    1.0000 </r>
       <r>   -1.9094    0.0000 </r>
       <r>    8.4001    0.0000 </r>
       <r>   10.4110    0.0000 </r>
       <r>   10.7700    0.0000 </r>
       <r>   11.2554    0.0000 </r>
       <r>   12.1874    0.0000 </r>
       <r>   12.4623    0.0000 </r>
       <r>   13.0821    0.0000 </r>
       <r>   13.2378    0.0000 </r>
       <r>   13.3581    0.0000 </r>
       <r>   13.6650    0.0000 </r>
       <r>   13.9489    0.0000 </r>
      </set>
      <set comment="kpoint 63">
       <r>  -15.4659    1.0000 </r>
       <r>  -14.3532    1.0000 </r>
       <r>  -12.6032    1.0000 </r>
       <r>   -2.9302    1.0000 </r>
       <r>   -1.5591    0.0000 </r>
       <r>    8.4483    0.0000 </r>
       <r>    9.9428    0.0000 </r>
       <r>   10.8159    0.0000 </r>
       <r>   11.2081    0.0000 </r>
       <r>   11.5975    0.0000 </r>
       <r>   11.8283    0.0000 </r>
       <r>   13.4911    0.0000 </r>
       <r>   13.5055    0.0000 </r>
       <r>   13.5200    0.0000 </r>
       <r>   13.6017    0.0000 </r>
       <r>   13.9778    0.0000 </r>
      </set>
      <set comment="kpoint 64">
       <r>  -15.8424    1.0000 </r>
       <r>  -14.0841    1.0000 </r>
       <r>  -12.3988    1.0000 </r>
       <r>   -3.3049    1.0000 </r>
       <r>   -1.1890    0.0000 </r>
       <r>    8.5016    0.0000 </r>
       <r>    9.3920    0.0000 </r>
       <r>   10.8143    0.0000 </r>
       <r>   11.0224    0.0000 </r>
       <r>   11.0345    0.0000 </r>
       <r>   11.2511    0.0000 </r>
       <r>   13.1554    0.0000 </r>
       <r>   13.3831    0.0000 </r>
       <r>   13.8018    0.0000 </r>
       <r>   13.9249    0.0000 </r>
       <r>   14.0071    0.0000 </r>
      </set>
      <set comment="kpoint 65">
       <r>  -16.2327    1.0000 </r>
       <r>  -13.8001    1.0000 </r>
       <r>  -12.1559    1.0000 </r>
       <r>   -3.6925    1.0000 </r>
       <r>   -0.8008    0.0000 </r>
       <r>    8.5169    0.0000 </r>
       <r>    8.8157    0.0000 </r>
       <r>   10.4785    0.0000 </r>
       <r>   10.5464    0.0000 </r>
       <r>   10.7674    0.0000 </r>
       <r>   10.9647    0.0000 </r>
       <r>   12.6311    0.0000 </r>
       <r>   12.9019    0.0000 </r>
       <r>   14.1357    0.0000 </r>
       <r>   14.2829    0.0000 </r>
       <r>   14.3831    0.0000 </r>
      </set>
      <set comment="kpoint 66">
       <r>  -16.6257    1.0000 </r>
       <r>  -13.5013    1.0000 </r>
       <r>  -11.8847    1.0000 </r>
       <r>   -4.0878    1.0000 </r>
       <r>   -0.3932    0.0000 </r>
       <r>    8.2380    0.0000 </r>
       <r>    8.4265    0.0000 </r>
       <r>    9.8656    0.0000 </r>
       <r>   10.1823    0.0000 </r>
       <r>   10.6884    0.0000 </r>
       <r>   10.7051    0.0000 </r>
       <r>   12.1396    0.0000 </r>
       <r>   12.3521    0.0000 </r>
       <r>   14.5093    0.0000 </r>
       <r>   14.6487    0.0000 </r>
       <r>   14.8659    0.0000 </r>
      </set>
      <set comment="kpoint 67">
       <r>  -17.0149    1.0000 </r>
       <r>  -13.1881    1.0000 </r>
       <r>  -11.5921    1.0000 </r>
       <r>   -4.4878    1.0000 </r>
       <r>    0.0316    0.0000 </r>
       <r>    7.6704    0.0000 </r>
       <r>    8.1795    0.0000 </r>
       <r>    9.2667    0.0000 </r>
       <r>    9.9499    0.0000 </r>
       <r>   10.4104    0.0000 </r>
       <r>   10.5843    0.0000 </r>
       <r>   11.7379    0.0000 </r>
       <r>   11.7962    0.0000 </r>
       <r>   14.9174    0.0000 </r>
       <r>   15.0583    0.0000 </r>
       <r>   15.0783    0.0000 </r>
      </set>
      <set comment="kpoint 68">
       <r>  -17.3962    1.0000 </r>
       <r>  -12.8608    1.0000 </r>
       <r>  -11.2822    1.0000 </r>
       <r>   -4.8863    1.0000 </r>
       <r>    0.4720    0.0000 </r>
       <r>    7.1189    0.0000 </r>
       <r>    7.8044    0.0000 </r>
       <r>    8.6894    0.0000 </r>
       <r>    9.7527    0.0000 </r>
       <r>   10.0922    0.0000 </r>
       <r>   10.4619    0.0000 </r>
       <r>   11.2514    0.0000 </r>
       <r>   11.4909    0.0000 </r>
       <r>   14.6981    0.0000 </r>
       <r>   15.1985    0.0000 </r>
       <r>   15.3507    0.0000 </r>
      </set>
      <set comment="kpoint 69">
       <r>  -17.7669    1.0000 </r>
       <r>  -12.5196    1.0000 </r>
       <r>  -10.9581    1.0000 </r>
       <r>   -5.2806    1.0000 </r>
       <r>    0.9272    0.0000 </r>
       <r>    6.5865    0.0000 </r>
       <r>    7.3657    0.0000 </r>
       <r>    8.1358    0.0000 </r>
       <r>    9.4809    0.0000 </r>
       <r>    9.7595    0.0000 </r>
       <r>   10.3286    0.0000 </r>
       <r>   10.7245    0.0000 </r>
       <r>   11.4290    0.0000 </r>
       <r>   14.3086    0.0000 </r>
       <r>   14.7607    0.0000 </r>
       <r>   15.7947    0.0000 </r>
      </set>
      <set comment="kpoint 70">
       <r>  -18.1253    1.0000 </r>
       <r>  -12.1653    1.0000 </r>
       <r>  -10.6222    1.0000 </r>
       <r>   -5.6680    1.0000 </r>
       <r>    1.3978    0.0000 </r>
       <r>    6.0753    0.0000 </r>
       <r>    6.9062    0.0000 </r>
       <r>    7.6066    0.0000 </r>
       <r>    9.1243    0.0000 </r>
       <r>    9.4238    0.0000 </r>
       <r>   10.1876    0.0000 </r>
       <r>   10.2192    0.0000 </r>
       <r>   11.4889    0.0000 </r>
       <r>   13.9820    0.0000 </r>
       <r>   14.2908    0.0000 </r>
       <r>   16.2188    0.0000 </r>
      </set>
      <set comment="kpoint 71">
       <r>  -18.4700    1.0000 </r>
       <r>  -11.7981    1.0000 </r>
       <r>  -10.2765    1.0000 </r>
       <r>   -6.0463    1.0000 </r>
       <r>    1.8801    0.0000 </r>
       <r>    5.5865    0.0000 </r>
       <r>    6.4476    0.0000 </r>
       <r>    7.1025    0.0000 </r>
       <r>    8.7234    0.0000 </r>
       <r>    9.0890    0.0000 </r>
       <r>    9.7384    0.0000 </r>
       <r>   10.0425    0.0000 </r>
       <r>   11.5556    0.0000 </r>
       <r>   13.7801    0.0000 </r>
       <r>   13.8291    0.0000 </r>
       <r>   16.5540    0.0000 </r>
      </set>
      <set comment="kpoint 72">
       <r>  -18.8001    1.0000 </r>
       <r>  -11.4188    1.0000 </r>
       <r>   -9.9233    1.0000 </r>
       <r>   -6.4131    1.0000 </r>
       <r>    2.3734    0.0000 </r>
       <r>    5.1209    0.0000 </r>
       <r>    6.0005    0.0000 </r>
       <r>    6.6238    0.0000 </r>
       <r>    8.3101    0.0000 </r>
       <r>    8.7586    0.0000 </r>
       <r>    9.2846    0.0000 </r>
       <r>    9.8919    0.0000 </r>
       <r>   11.5272    0.0000 </r>
       <r>   13.3830    0.0000 </r>
       <r>   13.7614    0.0000 </r>
       <r>   16.6629    0.0000 </r>
      </set>
      <set comment="kpoint 73">
       <r>  -19.1148    1.0000 </r>
       <r>  -11.0282    1.0000 </r>
       <r>   -9.5645    1.0000 </r>
       <r>   -6.7664    1.0000 </r>
       <r>    2.8758    0.0000 </r>
       <r>    4.6792    0.0000 </r>
       <r>    5.5702    0.0000 </r>
       <r>    6.1705    0.0000 </r>
       <r>    7.9011    0.0000 </r>
       <r>    8.4341    0.0000 </r>
       <r>    8.8607    0.0000 </r>
       <r>    9.7379    0.0000 </r>
       <r>   11.3717    0.0000 </r>
       <r>   12.9562    0.0000 </r>
       <r>   13.9276    0.0000 </r>
       <r>   16.4528    0.0000 </r>
      </set>
      <set comment="kpoint 74">
       <r>  -19.4134    1.0000 </r>
       <r>  -10.6272    1.0000 </r>
       <r>   -9.2023    1.0000 </r>
       <r>   -7.1051    1.0000 </r>
       <r>    3.3858    0.0000 </r>
       <r>    4.2617    0.0000 </r>
       <r>    5.1599    0.0000 </r>
       <r>    5.7429    0.0000 </r>
       <r>    7.5051    0.0000 </r>
       <r>    8.1138    0.0000 </r>
       <r>    8.4709    0.0000 </r>
       <r>    9.5802    0.0000 </r>
       <r>   11.1268    0.0000 </r>
       <r>   12.5504    0.0000 </r>
       <r>   14.2116    0.0000 </r>
       <r>   16.0173    0.0000 </r>
      </set>
      <set comment="kpoint 75">
       <r>  -19.6955    1.0000 </r>
       <r>  -10.2175    1.0000 </r>
       <r>   -8.8391    1.0000 </r>
       <r>   -7.4278    1.0000 </r>
       <r>    3.8688    0.0000 </r>
       <r>    3.8990    0.0000 </r>
       <r>    4.7714    0.0000 </r>
       <r>    5.3410    0.0000 </r>
       <r>    7.1267    0.0000 </r>
       <r>    7.7944    0.0000 </r>
       <r>    8.1193    0.0000 </r>
       <r>    9.4178    0.0000 </r>
       <r>   10.8397    0.0000 </r>
       <r>   12.1668    0.0000 </r>
       <r>   14.5249    0.0000 </r>
       <r>   15.4609    0.0000 </r>
      </set>
      <set comment="kpoint 76">
       <r>  -19.9606    1.0000 </r>
       <r>   -9.7994    1.0000 </r>
       <r>   -8.4766    1.0000 </r>
       <r>   -7.7329    1.0000 </r>
       <r>    3.5008    0.0000 </r>
       <r>    4.4059    0.0000 </r>
       <r>    4.4166    0.0000 </r>
       <r>    4.9649    0.0000 </r>
       <r>    6.7687    0.0000 </r>
       <r>    7.4793    0.0000 </r>
       <r>    7.8093    0.0000 </r>
       <r>    9.2498    0.0000 </r>
       <r>   10.5403    0.0000 </r>
       <r>   11.8064    0.0000 </r>
       <r>   14.7768    0.0000 </r>
       <r>   14.8690    0.0000 </r>
      </set>
      <set comment="kpoint 77">
       <r>  -20.2086    1.0000 </r>
       <r>   -9.3756    1.0000 </r>
       <r>   -8.1192    1.0000 </r>
       <r>   -8.0206    1.0000 </r>
       <r>    3.1576    0.0000 </r>
       <r>    4.0640    0.0000 </r>
       <r>    4.6147    0.0000 </r>
       <r>    4.9301    0.0000 </r>
       <r>    6.4326    0.0000 </r>
       <r>    7.1694    0.0000 </r>
       <r>    7.5353    0.0000 </r>
       <r>    9.0727    0.0000 </r>
       <r>   10.2435    0.0000 </r>
       <r>   11.4694    0.0000 </r>
       <r>   14.2575    0.0000 </r>
       <r>   14.8909    0.0000 </r>
      </set>
      <set comment="kpoint 78">
       <r>  -20.4390    1.0000 </r>
       <r>   -8.9476    1.0000 </r>
       <r>   -8.2890    1.0000 </r>
       <r>   -7.7678    1.0000 </r>
       <r>    2.8396    0.0000 </r>
       <r>    3.7465    0.0000 </r>
       <r>    4.2903    0.0000 </r>
       <r>    5.4412    0.0000 </r>
       <r>    6.1195    0.0000 </r>
       <r>    6.8734    0.0000 </r>
       <r>    7.2949    0.0000 </r>
       <r>    8.8826    0.0000 </r>
       <r>    9.9586    0.0000 </r>
       <r>   11.1564    0.0000 </r>
       <r>   13.6598    0.0000 </r>
       <r>   14.8626    0.0000 </r>
      </set>
      <set comment="kpoint 79">
       <r>  -20.6516    1.0000 </r>
       <r>   -8.5378    1.0000 </r>
       <r>   -8.5184    1.0000 </r>
       <r>   -7.4260    1.0000 </r>
       <r>    2.5469    0.0000 </r>
       <r>    3.4537    0.0000 </r>
       <r>    3.9919    0.0000 </r>
       <r>    5.8302    0.0000 </r>
       <r>    5.9425    0.0000 </r>
       <r>    6.5953    0.0000 </r>
       <r>    7.0822    0.0000 </r>
       <r>    8.6761    0.0000 </r>
       <r>    9.6902    0.0000 </r>
       <r>   10.8675    0.0000 </r>
       <r>   13.0820    0.0000 </r>
       <r>   14.7445    0.0000 </r>
      </set>
      <set comment="kpoint 80">
       <r>  -20.8463    1.0000 </r>
       <r>   -8.7668    1.0000 </r>
       <r>   -8.0917    1.0000 </r>
       <r>   -7.0976    1.0000 </r>
       <r>    2.2794    0.0000 </r>
       <r>    3.1856    0.0000 </r>
       <r>    3.7194    0.0000 </r>
       <r>    5.5651    0.0000 </r>
       <r>    6.3382    0.0000 </r>
       <r>    6.4242    0.0000 </r>
       <r>    6.8930    0.0000 </r>
       <r>    8.4476    0.0000 </r>
       <r>    9.4408    0.0000 </r>
       <r>   10.6029    0.0000 </r>
       <r>   12.5455    0.0000 </r>
       <r>   14.5853    0.0000 </r>
      </set>
      <set comment="kpoint 81">
       <r>  -21.0229    1.0000 </r>
       <r>   -8.9750    1.0000 </r>
       <r>   -7.6698    1.0000 </r>
       <r>   -6.7853    1.0000 </r>
       <r>    2.0373    0.0000 </r>
       <r>    2.9428    0.0000 </r>
       <r>    3.4728    0.0000 </r>
       <r>    5.3246    0.0000 </r>
       <r>    6.1041    0.0000 </r>
       <r>    6.7296    0.0000 </r>
       <r>    6.8900    0.0000 </r>
       <r>    8.1974    0.0000 </r>
       <r>    9.2126    0.0000 </r>
       <r>   10.3629    0.0000 </r>
       <r>   12.0641    0.0000 </r>
       <r>   14.4144    0.0000 </r>
      </set>
      <set comment="kpoint 82">
[...]
       </set>
       <set comment="band 12">
        <r>  0.0000  0.0000  0.3730  0.0000  0.0000  0.0000  0.0000  0.0000  0.0000 </r>
        <r>  0.0000  0.0000  0.3730  0.0000  0.0000  0.0000  0.0000  0.0000  0.0000 </r>
       </set>
       <set comment="band 13">
        <r>  0.0000  0.0000  0.0246  0.0000  0.0000  0.0000  0.0000  0.0000  0.0000 </r>
        <r>  0.0000  0.0000  0.0246  0.0000  0.0000  0.0000  0.0000  0.0000  0.0000 </r>
       </set>
       <set comment="band 14">
        <r>  0.0090  0.0000  0.0000  0.0000  0.0000  0.0000  0.0000  0.0000  0.0000 </r>
        <r>  0.0090  0.0000  0.0000  0.0000  0.0000  0.0000  0.0000  0.0000  0.0000 </r>
       </set>
       <set comment="band 15">
        <r>  0.3168  0.0286  0.0000  0.0121  0.0000  0.0000  0.0000  0.0000  0.0000 </r>
        <r>  0.3168  0.0286  0.0000  0.0121  0.0000  0.0000  0.0000  0.0000  0.0000 </r>
       </set>
       <set comment="band 16">
        <r>  0.0000  0.0000  0.0325  0.0000  0.0000  0.0000  0.0000  0.0000  0.0000 </r>
        <r>  0.0000  0.0000  0.0325  0.0000  0.0000  0.0000  0.0000  0.0000  0.0000 </r>
       </set>
      </set>
      <set comment="kpoint 86">
       <set comment="band 1">
        <r>  0.3208  0.0024  0.0000  0.0008  0.0000  0.0000  0.0000  0.0000  0.0000 </r>
        <r>  0.3208  0.0024  0.0000  0.0008  0.0000  0.0000  0.0000  0.0000  0.0000 </r>
       </set>
       <set comment="band 2">
        <r>  0.0000  0.0000  0.2166  0.0000  0.0000  0.0000  0.0000  0.0000  0.0000 </r>
        <r>  0.0000  0.0000  0.2166  0.0000  0.0000  0.0000  0.0000  0.0000  0.0000 </r>
       </set>
       <set comment="band 3">
        <r>  0.0169  0.2887  0.0000  0.1028  0.0000  0.0000  0.0000  0.0000  0.0000 </r>
        <r>  0.0169  0.2887  0.0000  0.1028  0.0000  0.0000  0.0000  0.0000  0.0000 </r>
       </set>
       <set comment="band 4">
        <r>  0.0002  0.1076  0.0000  0.3014  0.0000  0.0000  0.0000  0.0000  0.0000 </r>
        <r>  0.0002  0.1076  0.0000  0.3014  0.0000  0.0000  0.0000  0.0000  0.0000 </r>
       </set>
       <set comment="band 5">
        <r>  0.0092  0.0003  0.0000  0.0001  0.0000  0.0000  0.0000  0.0000  0.0000 </r>
        <r>  0.0092  0.0003  0.0000  0.0001  0.0000  0.0000  0.0000  0.0000  0.0000 </r>
       </set>
       <set comment="band 6">
        <r>  0.0000  0.0000  0.0139  0.0000  0.0000  0.0000  0.0000  0.0000  0.0000 </r>
        <r>  0.0000  0.0000  0.0139  0.0000  0.0000  0.0000  0.0000  0.0000  0.0000 </r>
       </set>
       <set comment="band 7">
        <r>  0.0027  0.0001  0.0000  0.0000  0.0000  0.0000  0.0000  0.0000  0.0000 </r>
        <r>  0.0027  0.0001  0.0000  0.0000  0.0000  0.0000  0.0000  0.0000  0.0000 </r>
       </set>
       <set comment="band 8">
        <r>  0.0000  0.0000  0.0157  0.0000  0.0000  0.0000  0.0000  0.0000  0.0000 </r>
        <r>  0.0000  0.0000  0.0157  0.0000  0.0000  0.0000  0.0000  0.0000  0.0000 </r>
       </set>
       <set comment="band 9">
        <r>  0.0059  0.0020  0.0000  0.0007  0.0000  0.0000  0.0000  0.0000  0.0000 </r>
        <r>  0.0059  0.0020  0.0000  0.0007  0.0000  0.0000  0.0000  0.0000  0.0000 </r>
       </set>
       <set comment="band 10">
        <r>  0.0082  0.1784  0.0000  0.0694  0.0000  0.0000  0.0000  0.0000  0.0000 </r>
        <r>  0.0082  0.1784  0.0000  0.0694  0.0000  0.0000  0.0000  0.0000  0.0000 </r>
       </set>
       <set comment="band 11">
        <r>  0.0050  0.0710  0.0000  0.1928  0.0000  0.0000  0.0000  0.0000  0.0000 </r>
        <r>  0.0050  0.0710  0.0000  0.1928  0.0000  0.0000  0.0000  0.0000  0.0000 </r>
       </set>
       <set comment="band 12">
        <r>  0.0000  0.0000  0.0245  0.0000  0.0000  0.0000  0.0000  0.0000  0.0000 </r>
        <r>  0.0000  0.0000  0.0245  0.0000  0.0000  0.0000  0.0000  0.0000  0.0000 </r>
       </set>
       <set comment="band 13">
        <r>  0.0000  0.0000  0.3792  0.0000  0.0000  0.0000  0.0000  0.0000  0.0000 </r>
        <r>  0.0000  0.0000  0.3792  0.0000  0.0000  0.0000  0.0000  0.0000  0.0000 </r>
       </set>
       <set comment="band 14">
        <r>  0.0089  0.0000  0.0000  0.0000  0.0000  0.0000  0.0000  0.0000  0.0000 </r>
        <r>  0.0089  0.0000  0.0000  0.0000  0.0000  0.0000  0.0000  0.0000  0.0000 </r>
       </set>
       <set comment="band 15">
        <r>  0.3333  0.0178  0.0000  0.0070  0.0000  0.0000  0.0000  0.0000  0.0000 </r>
        <r>  0.3333  0.0178  0.0000  0.0070  0.0000  0.0000  0.0000  0.0000  0.0000 </r>
       </set>
       <set comment="band 16">
        <r>  0.0000  0.0000  0.0323  0.0000  0.0000  0.0000  0.0000  0.0000  0.0000 </r>
        <r>  0.0000  0.0000  0.0323  0.0000  0.0000  0.0000  0.0000  0.0000  0.0000 </r>
       </set>
      </set>
      <set comment="kpoint 87">
       <set comment="band 1">
        <r>  0.3218  0.0013  0.0000  0.0005  0.0000  0.0000  0.0000  0.0000  0.0000 </r>
        <r>  0.3218  0.0013  0.0000  0.0005  0.0000  0.0000  0.0000  0.0000  0.0000 </r>
       </set>
       <set comment="band 2">
        <r>  0.0000  0.0000  0.2163  0.0000  0.0000  0.0000  0.0000  0.0000  0.0000 </r>
        <r>  0.0000  0.0000  0.2163  0.0000  0.0000  0.0000  0.0000  0.0000  0.0000 </r>
       </set>
       <set comment="band 3">
        <r>  0.0099  0.2973  0.0000  0.1031  0.0000  0.0000  0.0000  0.0000  0.0000 </r>
        <r>  0.0099  0.2974  0.0000  0.1031  0.0000  0.0000  0.0000  0.0000  0.0000 </r>
       </set>
       <set comment="band 4">
        <r>  0.0001  0.1059  0.0000  0.3051  0.0000  0.0000  0.0000  0.0000  0.0000 </r>
        <r>  0.0001  0.1059  0.0000  0.3051  0.0000  0.0000  0.0000  0.0000  0.0000 </r>
       </set>
       <set comment="band 5">
        <r>  0.0093  0.0002  0.0000  0.0001  0.0000  0.0000  0.0000  0.0000  0.0000 </r>
        <r>  0.0093  0.0002  0.0000  0.0001  0.0000  0.0000  0.0000  0.0000  0.0000 </r>
       </set>
       <set comment="band 6">
        <r>  0.0000  0.0000  0.0138  0.0000  0.0000  0.0000  0.0000  0.0000  0.0000 </r>
        <r>  0.0000  0.0000  0.0138  0.0000  0.0000  0.0000  0.0000  0.0000  0.0000 </r>
       </set>
       <set comment="band 7">
        <r>  0.0028  0.0001  0.0000  0.0000  0.0000  0.0000  0.0000  0.0000  0.0000 </r>
        <r>  0.0028  0.0001  0.0000  0.0000  0.0000  0.0000  0.0000  0.0000  0.0000 </r>
       </set>
       <set comment="band 8">
        <r>  0.0000  0.0000  0.0157  0.0000  0.0000  0.0000  0.0000  0.0000  0.0000 </r>
        <r>  0.0000  0.0000  0.0157  0.0000  0.0000  0.0000  0.0000  0.0000  0.0000 </r>
       </set>
       <set comment="band 9">
        <r>  0.0064  0.0011  0.0000  0.0004  0.0000  0.0000  0.0000  0.0000  0.0000 </r>
        <r>  0.0064  0.0011  0.0000  0.0004  0.0000  0.0000  0.0000  0.0000  0.0000 </r>
       </set>
       <set comment="band 10">
        <r>  0.0047  0.1864  0.0000  0.0679  0.0000  0.0000  0.0000  0.0000  0.0000 </r>
        <r>  0.0047  0.1864  0.0000  0.0679  0.0000  0.0000  0.0000  0.0000  0.0000 </r>
       </set>
       <set comment="band 11">
        <r>  0.0016  0.0697  0.0000  0.1952  0.0000  0.0000  0.0000  0.0000  0.0000 </r>
        <r>  0.0016  0.0697  0.0000  0.1952  0.0000  0.0000  0.0000  0.0000  0.0000 </r>
       </set>
       <set comment="band 12">
        <r>  0.0000  0.0000  0.0244  0.0000  0.0000  0.0000  0.0000  0.0000  0.0000 </r>
        <r>  0.0000  0.0000  0.0244  0.0000  0.0000  0.0000  0.0000  0.0000  0.0000 </r>
       </set>
       <set comment="band 13">
        <r>  0.0000  0.0000  0.3844  0.0000  0.0000  0.0000  0.0000  0.0000  0.0000 </r>
        <r>  0.0000  0.0000  0.3844  0.0000  0.0000  0.0000  0.0000  0.0000  0.0000 </r>
       </set>
       <set comment="band 14">
        <r>  0.0087  0.0000  0.0000  0.0000  0.0000  0.0000  0.0000  0.0000  0.0000 </r>
        <r>  0.0087  0.0000  0.0000  0.0000  0.0000  0.0000  0.0000  0.0000  0.0000 </r>
       </set>
       <set comment="band 15">
        <r>  0.3449  0.0097  0.0000  0.0036  0.0000  0.0000  0.0000  0.0000  0.0000 </r>
        <r>  0.3449  0.0097  0.0000  0.0036  0.0000  0.0000  0.0000  0.0000  0.0000 </r>
       </set>
       <set comment="band 16">
        <r>  0.0000  0.0000  0.0321  0.0000  0.0000  0.0000  0.0000  0.0000  0.0000 </r>
        <r>  0.0000  0.0000  0.0321  0.0000  0.0000  0.0000  0.0000  0.0000  0.0000 </r>
       </set>
      </set>
      <set comment="kpoint 88">
       <set comment="band 1">
        <r>  0.3226  0.0006  0.0000  0.0002  0.0000  0.0000  0.0000  0.0000  0.0000 </r>
        <r>  0.3226  0.0006  0.0000  0.0002  0.0000  0.0000  0.0000  0.0000  0.0000 </r>
       </set>
       <set comment="band 2">
        <r>  0.0000  0.0000  0.2161  0.0000  0.0000  0.0000  0.0000  0.0000  0.0000 </r>
        <r>  0.0000  0.0000  0.2161  0.0000  0.0000  0.0000  0.0000  0.0000  0.0000 </r>
       </set>
       <set comment="band 3">
        <r>  0.0045  0.3042  0.0000  0.1033  0.0000  0.0000  0.0000  0.0000  0.0000 </r>
        <r>  0.0045  0.3042  0.0000  0.1033  0.0000  0.0000  0.0000  0.0000  0.0000 </r>
       </set>
       <set comment="band 4">
        <r>  0.0000  0.1045  0.0000  0.3079  0.0000  0.0000  0.0000  0.0000  0.0000 </r>
        <r>  0.0000  0.1045  0.0000  0.3079  0.0000  0.0000  0.0000  0.0000  0.0000 </r>
       </set>
       <set comment="band 5">
        <r>  0.0094  0.0001  0.0000  0.0000  0.0000  0.0000  0.0000  0.0000  0.0000 </r>
        <r>  0.0094  0.0001  0.0000  0.0000  0.0000  0.0000  0.0000  0.0000  0.0000 </r>
       </set>
       <set comment="band 6">
        <r>  0.0000  0.0000  0.0138  0.0000  0.0000  0.0000  0.0000  0.0000  0.0000 </r>
        <r>  0.0000  0.0000  0.0138  0.0000  0.0000  0.0000  0.0000  0.0000  0.0000 </r>
       </set>
       <set comment="band 7">
        <r>  0.0028  0.0000  0.0000  0.0000  0.0000  0.0000  0.0000  0.0000  0.0000 </r>
        <r>  0.0028  0.0000  0.0000  0.0000  0.0000  0.0000  0.0000  0.0000  0.0000 </r>
       </set>
       <set comment="band 8">
        <r>  0.0000  0.0000  0.0157  0.0000  0.0000  0.0000  0.0000  0.0000  0.0000 </r>
        <r>  0.0000  0.0000  0.0157  0.0000  0.0000  0.0000  0.0000  0.0000  0.0000 </r>
       </set>
       <set comment="band 9">
        <r>  0.0068  0.0005  0.0000  0.0002  0.0000  0.0000  0.0000  0.0000  0.0000 </r>
        <r>  0.0068  0.0005  0.0000  0.0002  0.0000  0.0000  0.0000  0.0000  0.0000 </r>
       </set>
       <set comment="band 10">
        <r>  0.0021  0.1925  0.0000  0.0668  0.0000  0.0000  0.0000  0.0000  0.0000 </r>
        <r>  0.0021  0.1925  0.0000  0.0668  0.0000  0.0000  0.0000  0.0000  0.0000 </r>
       </set>
       <set comment="band 11">
        <r>  0.0003  0.0679  0.0000  0.1966  0.0000  0.0000  0.0000  0.0000  0.0000 </r>
        <r>  0.0003  0.0679  0.0000  0.1966  0.0000  0.0000  0.0000  0.0000  0.0000 </r>
       </set>
       <set comment="band 12">
        <r>  0.0000  0.0000  0.0244  0.0000  0.0000  0.0000  0.0000  0.0000  0.0000 </r>
        <r>  0.0000  0.0000  0.0244  0.0000  0.0000  0.0000  0.0000  0.0000  0.0000 </r>
       </set>
       <set comment="band 13">
        <r>  0.0000  0.0000  0.3884  0.0000  0.0000  0.0000  0.0000  0.0000  0.0000 </r>
        <r>  0.0000  0.0000  0.3884  0.0000  0.0000  0.0000  0.0000  0.0000  0.0000 </r>
       </set>
       <set comment="band 14">
        <r>  0.0085  0.0000  0.0000  0.0000  0.0000  0.0000  0.0000  0.0000  0.0000 </r>
        <r>  0.0085  0.0000  0.0000  0.0000  0.0000  0.0000  0.0000  0.0000  0.0000 </r>
       </set>
       <set comment="band 15">
        <r>  0.3524  0.0042  0.0000  0.0015  0.0000  0.0000  0.0000  0.0000  0.0000 </r>
        <r>  0.3524  0.0042  0.0000  0.0015  0.0000  0.0000  0.0000  0.0000  0.0000 </r>
       </set>
       <set comment="band 16">
        <r>  0.0000  0.0000  0.0320  0.0000  0.0000  0.0000  0.0000  0.0000  0.0000 </r>
        <r>  0.0000  0.0000  0.0320  0.0000  0.0000  0.0000  0.0000  0.0000  0.0000 </r>
       </set>
      </set>
      <set comment="kpoint 89">
       <set comment="band 1">
        <r>  0.3230  0.0002  0.0000  0.0001  0.0000  0.0000  0.0000  0.0000  0.0000 </r>
        <r>  0.3230  0.0002  0.0000  0.0001  0.0000  0.0000  0.0000  0.0000  0.0000 </r>
       </set>
       <set comment="band 2">
        <r>  0.0000  0.0000  0.2160  0.0000  0.0000  0.0000  0.0000  0.0000  0.0000 </r>
        <r>  0.0000  0.0000  0.2160  0.0000  0.0000  0.0000  0.0000  0.0000  0.0000 </r>
       </set>
       <set comment="band 3">
        <r>  0.0011  0.3086  0.0000  0.1034  0.0000  0.0000  0.0000  0.0000  0.0000 </r>
        <r>  0.0011  0.3086  0.0000  0.1034  0.0000  0.0000  0.0000  0.0000  0.0000 </r>
       </set>
       <set comment="band 4">
        <r>  0.0000  0.1037  0.0000  0.3096  0.0000  0.0000  0.0000  0.0000  0.0000 </r>
        <r>  0.0000  0.1037  0.0000  0.3096  0.0000  0.0000  0.0000  0.0000  0.0000 </r>
       </set>
       <set comment="band 5">
        <r>  0.0095  0.0000  0.0000  0.0000  0.0000  0.0000  0.0000  0.0000  0.0000 </r>
        <r>  0.0095  0.0000  0.0000  0.0000  0.0000  0.0000  0.0000  0.0000  0.0000 </r>
       </set>
       <set comment="band 6">
        <r>  0.0000  0.0000  0.0138  0.0000  0.0000  0.0000  0.0000  0.0000  0.0000 </r>
        <r>  0.0000  0.0000  0.0138  0.0000  0.0000  0.0000  0.0000  0.0000  0.0000 </r>
       </set>
       <set comment="band 7">
        <r>  0.0028  0.0000  0.0000  0.0000  0.0000  0.0000  0.0000  0.0000  0.0000 </r>
        <r>  0.0028  0.0000  0.0000  0.0000  0.0000  0.0000  0.0000  0.0000  0.0000 </r>
       </set>
       <set comment="band 8">
        <r>  0.0000  0.0000  0.0157  0.0000  0.0000  0.0000  0.0000  0.0000  0.0000 </r>
        <r>  0.0000  0.0000  0.0157  0.0000  0.0000  0.0000  0.0000  0.0000  0.0000 </r>
       </set>
       <set comment="band 9">
        <r>  0.0070  0.0001  0.0000  0.0000  0.0000  0.0000  0.0000  0.0000  0.0000 </r>
        <r>  0.0070  0.0001  0.0000  0.0000  0.0000  0.0000  0.0000  0.0000  0.0000 </r>
       </set>
       <set comment="band 10">
        <r>  0.0005  0.1962  0.0000  0.0661  0.0000  0.0000  0.0000  0.0000  0.0000 </r>
        <r>  0.0005  0.1962  0.0000  0.0661  0.0000  0.0000  0.0000  0.0000  0.0000 </r>
       </set>
       <set comment="band 11">
        <r>  0.0000  0.0664  0.0000  0.1973  0.0000  0.0000  0.0000  0.0000  0.0000 </r>
        <r>  0.0000  0.0664  0.0000  0.1973  0.0000  0.0000  0.0000  0.0000  0.0000 </r>
       </set>
       <set comment="band 12">
        <r>  0.0000  0.0000  0.0243  0.0000  0.0000  0.0000  0.0000  0.0000  0.0000 </r>
        <r>  0.0000  0.0000  0.0243  0.0000  0.0000  0.0000  0.0000  0.0000  0.0000 </r>
       </set>
       <set comment="band 13">
        <r>  0.0000  0.0000  0.3909  0.0000  0.0000  0.0000  0.0000  0.0000  0.0000 </r>
        <r>  0.0000  0.0000  0.3909  0.0000  0.0000  0.0000  0.0000  0.0000  0.0000 </r>
       </set>
       <set comment="band 14">
        <r>  0.0084  0.0000  0.0000  0.0000  0.0000  0.0000  0.0000  0.0000  0.0000 </r>
        <r>  0.0084  0.0000  0.0000  0.0000  0.0000  0.0000  0.0000  0.0000  0.0000 </r>
       </set>
       <set comment="band 15">
        <r>  0.3566  0.0010  0.0000  0.0004  0.0000  0.0000  0.0000  0.0000  0.0000 </r>
        <r>  0.3566  0.0010  0.0000  0.0004  0.0000  0.0000  0.0000  0.0000  0.0000 </r>
       </set>
       <set comment="band 16">
        <r>  0.0000  0.0000  0.0319  0.0000  0.0000  0.0000  0.0000  0.0000  0.0000 </r>
        <r>  0.0000  0.0000  0.0319  0.0000  0.0000  0.0000  0.0000  0.0000  0.0000 </r>
       </set>
      </set>
      <set comment="kpoint 90">
       <set comment="band 1">
        <r>  0.3232  0.0000  0.0000  0.0000  0.0000  0.0000  0.0000  0.0000  0.0000 </r>
        <r>  0.3232  0.0000  0.0000  0.0000  0.0000  0.0000  0.0000  0.0000  0.0000 </r>
       </set>
       <set comment="band 2">
        <r>  0.0000  0.0000  0.2160  0.0000  0.0000  0.0000  0.0000  0.0000  0.0000 </r>
        <r>  0.0000  0.0000  0.2160  0.0000  0.0000  0.0000  0.0000  0.0000  0.0000 </r>
       </set>
       <set comment="band 3">
        <r>  0.0000  0.1019  0.0000  0.3116  0.0000  0.0000  0.0000  0.0000  0.0000 </r>
        <r>  0.0000  0.1019  0.0000  0.3116  0.0000  0.0000  0.0000  0.0000  0.0000 </r>
       </set>
       <set comment="band 4">
        <r>  0.0000  0.3116  0.0000  0.1019  0.0000  0.0000  0.0000  0.0000  0.0000 </r>
        <r>  0.0000  0.3116  0.0000  0.1019  0.0000  0.0000  0.0000  0.0000  0.0000 </r>
       </set>
       <set comment="band 5">
        <r>  0.0095  0.0000  0.0000  0.0000  0.0000  0.0000  0.0000  0.0000  0.0000 </r>
        <r>  0.0095  0.0000  0.0000  0.0000  0.0000  0.0000  0.0000  0.0000  0.0000 </r>
       </set>
       <set comment="band 6">
        <r>  0.0000  0.0000  0.0138  0.0000  0.0000  0.0000  0.0000  0.0000  0.0000 </r>
        <r>  0.0000  0.0000  0.0138  0.0000  0.0000  0.0000  0.0000  0.0000  0.0000 </r>
       </set>
       <set comment="band 7">
        <r>  0.0028  0.0000  0.0000  0.0000  0.0000  0.0000  0.0000  0.0000  0.0000 </r>
        <r>  0.0028  0.0000  0.0000  0.0000  0.0000  0.0000  0.0000  0.0000  0.0000 </r>
       </set>
       <set comment="band 8">
        <r>  0.0000  0.0000  0.0157  0.0000  0.0000  0.0000  0.0000  0.0000  0.0000 </r>
        <r>  0.0000  0.0000  0.0157  0.0000  0.0000  0.0000  0.0000  0.0000  0.0000 </r>
       </set>
       <set comment="band 9">
        <r>  0.0071  0.0000  0.0000  0.0000  0.0000  0.0000  0.0000  0.0000  0.0000 </r>
        <r>  0.0071  0.0000  0.0000  0.0000  0.0000  0.0000  0.0000  0.0000  0.0000 </r>
       </set>
       <set comment="band 10">
        <r>  0.0000  0.1985  0.0000  0.0648  0.0000  0.0000  0.0000  0.0000  0.0000 </r>
        <r>  0.0000  0.1985  0.0000  0.0648  0.0000  0.0000  0.0000  0.0000  0.0000 </r>
       </set>
       <set comment="band 11">
        <r>  0.0000  0.0648  0.0000  0.1985  0.0000  0.0000  0.0000  0.0000  0.0000 </r>
        <r>  0.0000  0.0648  0.0000  0.1985  0.0000  0.0000  0.0000  0.0000  0.0000 </r>
       </set>
       <set comment="band 12">
        <r>  0.0000  0.0000  0.0243  0.0000  0.0000  0.0000  0.0000  0.0000  0.0000 </r>
        <r>  0.0000  0.0000  0.0243  0.0000  0.0000  0.0000  0.0000  0.0000  0.0000 </r>
       </set>
       <set comment="band 13">
        <r>  0.0000  0.0000  0.3917  0.0000  0.0000  0.0000  0.0000  0.0000  0.0000 </r>
        <r>  0.0000  0.0000  0.3917  0.0000  0.0000  0.0000  0.0000  0.0000  0.0000 </r>
       </set>
       <set comment="band 14">
        <r>  0.0084  0.0000  0.0000  0.0000  0.0000  0.0000  0.0000  0.0000  0.0000 </r>
        <r>  0.0084  0.0000  0.0000  0.0000  0.0000  0.0000  0.0000  0.0000  0.0000 </r>
       </set>
       <set comment="band 15">
        <r>  0.3580  0.0000  0.0000  0.0000  0.0000  0.0000  0.0000  0.0000  0.0000 </r>
        <r>  0.3580  0.0000  0.0000  0.0000  0.0000  0.0000  0.0000  0.0000  0.0000 </r>
       </set>
       <set comment="band 16">
        <r>  0.0000  0.0000  0.0319  0.0000  0.0000  0.0000  0.0000  0.0000  0.0000 </r>
        <r>  0.0000  0.0000  0.0319  0.0000  0.0000  0.0000  0.0000  0.0000  0.0000 </r>
       </set>
      </set>
     </set>
    </set>
   </array>
  </projected>
 </calculation>
 <structure name="finalpos" >
  <crystal>
   <varray name="basis" >
    <v>       2.46413828       0.00000000       0.00000000 </v>
    <v>      -1.23206914       2.13400635       0.00000000 </v>
    <v>       0.00000000       0.00000000      15.00000000 </v>
   </varray>
   <i name="volume">     78.87730093 </i>
   <varray name="rec_basis" >
    <v>       0.40582138       0.23430108      -0.00000000 </v>
    <v>       0.00000000       0.46860217       0.00000000 </v>
    <v>       0.00000000      -0.00000000       0.06666667 </v>
   </varray>
  </crystal>
  <varray name="positions" >
   <v>       0.00000000       0.00000000       0.14475063 </v>
   <v>       0.66666698       0.33333300       0.14475063 </v>
  </varray>
 </structure>
</modeling>
