C                                       
           1
     2.464138    0.000000    0.000000
    -1.232069    2.134006    0.000000
     0.000000    0.000000   15.000000
   C 
   2
Direct configuration=     1
   0.00000000  0.00000000  0.14475063
   0.66666698  0.33333300  0.14475063
