   3   3   1   0
  0.3508934E+02  0.4518641E-09  0.4518641E-09  0.5953197E-09  0.5000000E-15
   1.0000000000000000E-004
  CAR 
 Te-a                                    
     15.00000000    -15.00000000 3000      5.64674644      1.00000000
    -15.000  0.0000E+00  0.0000E+00
    -14.990  0.0000E+00  0.0000E+00
    -14.980  0.0000E+00  0.0000E+00
    -14.970  0.0000E+00  0.0000E+00
    -14.960  0.0000E+00  0.0000E+00
    -14.950  0.0000E+00  0.0000E+00
    -14.940  0.0000E+00  0.0000E+00
    -14.930  0.0000E+00  0.0000E+00
    -14.920  0.0000E+00  0.0000E+00
    -14.910  0.0000E+00  0.0000E+00
    -14.900  0.0000E+00  0.0000E+00
    -14.890  0.0000E+00  0.0000E+00
    -14.880  0.0000E+00  0.0000E+00
    -14.870  0.0000E+00  0.0000E+00
    -14.860  0.0000E+00  0.0000E+00
    -14.850  0.0000E+00  0.0000E+00
    -14.840  0.0000E+00  0.0000E+00
    -14.830  0.0000E+00  0.0000E+00
    -14.820  0.0000E+00  0.0000E+00
    -14.810  0.0000E+00  0.0000E+00
    -14.800  0.0000E+00  0.0000E+00
    -14.790  0.0000E+00  0.0000E+00
    -14.780  0.0000E+00  0.0000E+00
    -14.770  0.0000E+00  0.0000E+00
    -14.760  0.0000E+00  0.0000E+00
    -14.750  0.0000E+00  0.0000E+00
    -14.740  0.0000E+00  0.0000E+00
    -14.730  0.0000E+00  0.0000E+00
    -14.720  0.0000E+00  0.0000E+00
    -14.710  0.0000E+00  0.0000E+00
    -14.700  0.0000E+00  0.0000E+00
    -14.690  0.0000E+00  0.0000E+00
    -14.680  0.0000E+00  0.0000E+00
    -14.670  0.0000E+00  0.0000E+00
    -14.660  0.0000E+00  0.0000E+00
    -14.650  0.0000E+00  0.0000E+00
    -14.640  0.0000E+00  0.0000E+00
    -14.630  0.0000E+00  0.0000E+00
    -14.620  0.0000E+00  0.0000E+00
    -14.610  0.0000E+00  0.0000E+00
    -14.600  0.0000E+00  0.0000E+00
    -14.590  0.0000E+00  0.0000E+00
    -14.580  0.0000E+00  0.0000E+00
    -14.570  0.0000E+00  0.0000E+00
    -14.560  0.0000E+00  0.0000E+00
    -14.550  0.0000E+00  0.0000E+00
    -14.540  0.0000E+00  0.0000E+00
    -14.530  0.0000E+00  0.0000E+00
    -14.520  0.0000E+00  0.0000E+00
    -14.510  0.0000E+00  0.0000E+00
    -14.500  0.0000E+00  0.0000E+00
    -14.490  0.0000E+00  0.0000E+00
    -14.480  0.0000E+00  0.0000E+00
    -14.470  0.0000E+00  0.0000E+00
    -14.460  0.0000E+00  0.0000E+00
    -14.450  0.0000E+00  0.0000E+00
    -14.440  0.0000E+00  0.0000E+00
    -14.430  0.0000E+00  0.0000E+00
    -14.420  0.0000E+00  0.0000E+00
    -14.410  0.0000E+00  0.0000E+00
    -14.400  0.0000E+00  0.0000E+00
    -14.390  0.0000E+00  0.0000E+00
    -14.380  0.0000E+00  0.0000E+00
    -14.370  0.0000E+00  0.0000E+00
    -14.360  0.0000E+00  0.0000E+00
    -14.350  0.0000E+00  0.0000E+00
    -14.340  0.0000E+00  0.0000E+00
    -14.330  0.0000E+00  0.0000E+00
    -14.320  0.0000E+00  0.0000E+00
    -14.310  0.0000E+00  0.0000E+00
    -14.300  0.0000E+00  0.0000E+00
    -14.290  0.0000E+00  0.0000E+00
    -14.280  0.0000E+00  0.0000E+00
    -14.270  0.0000E+00  0.0000E+00
    -14.260  0.0000E+00  0.0000E+00
    -14.250  0.0000E+00  0.0000E+00
    -14.240  0.0000E+00  0.0000E+00
    -14.230  0.0000E+00  0.0000E+00
    -14.220  0.0000E+00  0.0000E+00
    -14.210  0.0000E+00  0.0000E+00
    -14.200  0.0000E+00  0.0000E+00
    -14.190  0.0000E+00  0.0000E+00
    -14.180  0.0000E+00  0.0000E+00
    -14.170  0.0000E+00  0.0000E+00
    -14.160  0.0000E+00  0.0000E+00
    -14.150  0.0000E+00  0.0000E+00
    -14.140  0.0000E+00  0.0000E+00
    -14.130  0.0000E+00  0.0000E+00
    -14.120  0.0000E+00  0.0000E+00
    -14.110  0.0000E+00  0.0000E+00
    -14.100  0.0000E+00  0.0000E+00
    -14.090  0.0000E+00  0.0000E+00
    -14.080  0.0000E+00  0.0000E+00
    -14.070  0.0000E+00  0.0000E+00
    -14.060  0.0000E+00  0.0000E+00
    -14.050  0.0000E+00  0.0000E+00
    -14.040  0.0000E+00  0.0000E+00
    -14.030  0.0000E+00  0.0000E+00
    -14.020  0.0000E+00  0.0000E+00
    -14.010  0.0000E+00  0.0000E+00
    -14.000  0.0000E+00  0.0000E+00
    -13.990  0.0000E+00  0.0000E+00
    -13.980  0.0000E+00  0.0000E+00
    -13.970  0.0000E+00  0.0000E+00
    -13.960  0.0000E+00  0.0000E+00
    -13.950  0.0000E+00  0.0000E+00
    -13.940  0.0000E+00  0.0000E+00
    -13.930  0.0000E+00  0.0000E+00
    -13.920  0.0000E+00  0.0000E+00
    -13.910  0.0000E+00  0.0000E+00
    -13.900  0.0000E+00  0.0000E+00
    -13.890  0.0000E+00  0.0000E+00
    -13.880  0.0000E+00  0.0000E+00
    -13.870  0.0000E+00  0.0000E+00
    -13.860  0.0000E+00  0.0000E+00
    -13.850  0.0000E+00  0.0000E+00
    -13.840  0.0000E+00  0.0000E+00
    -13.830  0.0000E+00  0.0000E+00
    -13.820  0.0000E+00  0.0000E+00
    -13.810  0.0000E+00  0.0000E+00
    -13.800  0.0000E+00  0.0000E+00
    -13.790  0.0000E+00  0.0000E+00
    -13.780  0.0000E+00  0.0000E+00
    -13.770  0.0000E+00  0.0000E+00
    -13.760  0.0000E+00  0.0000E+00
    -13.750  0.0000E+00  0.0000E+00
    -13.740  0.0000E+00  0.0000E+00
    -13.730  0.0000E+00  0.0000E+00
    -13.720  0.0000E+00  0.0000E+00
    -13.710  0.0000E+00  0.0000E+00
    -13.700  0.0000E+00  0.0000E+00
    -13.690  0.0000E+00  0.0000E+00
    -13.680  0.0000E+00  0.0000E+00
    -13.670  0.0000E+00  0.0000E+00
    -13.660  0.0000E+00  0.0000E+00
    -13.650  0.0000E+00  0.0000E+00
    -13.640  0.0000E+00  0.0000E+00
    -13.630  0.0000E+00  0.0000E+00
    -13.620  0.0000E+00  0.0000E+00
    -13.610  0.0000E+00  0.0000E+00
    -13.600  0.0000E+00  0.0000E+00
    -13.590  0.0000E+00  0.0000E+00
    -13.580  0.0000E+00  0.0000E+00
    -13.570  0.0000E+00  0.0000E+00
    -13.560  0.0000E+00  0.0000E+00
    -13.550  0.0000E+00  0.0000E+00
    -13.540  0.0000E+00  0.0000E+00
    -13.530  0.0000E+00  0.0000E+00
    -13.520  0.0000E+00  0.0000E+00
    -13.510  0.0000E+00  0.0000E+00
    -13.499  0.0000E+00  0.0000E+00
    -13.489  0.0000E+00  0.0000E+00
    -13.479  0.0000E+00  0.0000E+00
    -13.469  0.0000E+00  0.0000E+00
    -13.459  0.0000E+00  0.0000E+00
    -13.449  0.0000E+00  0.0000E+00
    -13.439  0.0000E+00  0.0000E+00
    -13.429  0.0000E+00  0.0000E+00
    -13.419  0.0000E+00  0.0000E+00
    -13.409  0.0000E+00  0.0000E+00
    -13.399  0.0000E+00  0.0000E+00
    -13.389  0.0000E+00  0.0000E+00
    -13.379  0.0000E+00  0.0000E+00
    -13.369  0.0000E+00  0.0000E+00
    -13.359  0.0000E+00  0.0000E+00
    -13.349  0.0000E+00  0.0000E+00
    -13.339  0.0000E+00  0.0000E+00
    -13.329  0.0000E+00  0.0000E+00
    -13.319  0.0000E+00  0.0000E+00
    -13.309  0.0000E+00  0.0000E+00
    -13.299  0.0000E+00  0.0000E+00
    -13.289  0.0000E+00  0.0000E+00
    -13.279  0.0000E+00  0.0000E+00
    -13.269  0.0000E+00  0.0000E+00
    -13.259  0.0000E+00  0.0000E+00
    -13.249  0.0000E+00  0.0000E+00
    -13.239  0.0000E+00  0.0000E+00
    -13.229  0.0000E+00  0.0000E+00
    -13.219  0.0000E+00  0.0000E+00
    -13.209  0.0000E+00  0.0000E+00
    -13.199  0.0000E+00  0.0000E+00
    -13.189  0.0000E+00  0.0000E+00
    -13.179  0.0000E+00  0.0000E+00
    -13.169  0.0000E+00  0.0000E+00
    -13.159  0.0000E+00  0.0000E+00
    -13.149  0.0000E+00  0.0000E+00
    -13.139  0.0000E+00  0.0000E+00
    -13.129  0.0000E+00  0.0000E+00
    -13.119  0.0000E+00  0.0000E+00
    -13.109  0.0000E+00  0.0000E+00
    -13.099  0.0000E+00  0.0000E+00
    -13.089  0.0000E+00  0.0000E+00
    -13.079  0.0000E+00  0.0000E+00
    -13.069  0.0000E+00  0.0000E+00
    -13.059  0.0000E+00  0.0000E+00
    -13.049  0.0000E+00  0.0000E+00
    -13.039  0.0000E+00  0.0000E+00
    -13.029  0.0000E+00  0.0000E+00
    -13.019  0.0000E+00  0.0000E+00
    -13.009  0.0000E+00  0.0000E+00
    -12.999  0.0000E+00  0.0000E+00
    -12.989  0.0000E+00  0.0000E+00
    -12.979  0.0000E+00  0.0000E+00
    -12.969  0.0000E+00  0.0000E+00
    -12.959  0.0000E+00  0.0000E+00
    -12.949  0.0000E+00  0.0000E+00
    -12.939  0.0000E+00  0.0000E+00
    -12.929  0.0000E+00  0.0000E+00
    -12.919  0.0000E+00  0.0000E+00
    -12.909  0.0000E+00  0.0000E+00
    -12.899  0.0000E+00  0.0000E+00
    -12.889  0.0000E+00  0.0000E+00
    -12.879  0.0000E+00  0.0000E+00
    -12.869  0.0000E+00  0.0000E+00
    -12.859  0.0000E+00  0.0000E+00
    -12.849  0.0000E+00  0.0000E+00
    -12.839  0.0000E+00  0.0000E+00
    -12.829  0.0000E+00  0.0000E+00
    -12.819  0.0000E+00  0.0000E+00
    -12.809  0.0000E+00  0.0000E+00
    -12.799  0.0000E+00  0.0000E+00
    -12.789  0.0000E+00  0.0000E+00
    -12.779  0.0000E+00  0.0000E+00
    -12.769  0.0000E+00  0.0000E+00
    -12.759  0.0000E+00  0.0000E+00
    -12.749  0.0000E+00  0.0000E+00
    -12.739  0.0000E+00  0.0000E+00
    -12.729  0.0000E+00  0.0000E+00
    -12.719  0.0000E+00  0.0000E+00
    -12.709  0.0000E+00  0.0000E+00
    -12.699  0.0000E+00  0.0000E+00
    -12.689  0.0000E+00  0.0000E+00
    -12.679  0.0000E+00  0.0000E+00
    -12.669  0.0000E+00  0.0000E+00
    -12.659  0.0000E+00  0.0000E+00
    -12.649  0.0000E+00  0.0000E+00
    -12.639  0.0000E+00  0.0000E+00
    -12.629  0.0000E+00  0.0000E+00
    -12.619  0.0000E+00  0.0000E+00
    -12.609  0.0000E+00  0.0000E+00
    -12.599  0.0000E+00  0.0000E+00
    -12.589  0.0000E+00  0.0000E+00
    -12.579  0.0000E+00  0.0000E+00
    -12.569  0.0000E+00  0.0000E+00
    -12.559  0.0000E+00  0.0000E+00
    -12.549  0.0000E+00  0.0000E+00
    -12.539  0.0000E+00  0.0000E+00
    -12.529  0.0000E+00  0.0000E+00
    -12.519  0.0000E+00  0.0000E+00
    -12.509  0.0000E+00  0.0000E+00
    -12.499  0.0000E+00  0.0000E+00
    -12.489  0.0000E+00  0.0000E+00
    -12.479  0.0000E+00  0.0000E+00
    -12.469  0.0000E+00  0.0000E+00
    -12.459  0.0000E+00  0.0000E+00
    -12.449  0.0000E+00  0.0000E+00
    -12.439  0.0000E+00  0.0000E+00
    -12.429  0.0000E+00  0.0000E+00
    -12.419  0.0000E+00  0.0000E+00
    -12.409  0.0000E+00  0.0000E+00
    -12.399  0.0000E+00  0.0000E+00
    -12.389  0.0000E+00  0.0000E+00
    -12.379  0.0000E+00  0.0000E+00
    -12.369  0.0000E+00  0.0000E+00
    -12.359  0.0000E+00  0.0000E+00
    -12.349  0.0000E+00  0.0000E+00
    -12.339  0.0000E+00  0.0000E+00
    -12.329  0.0000E+00  0.0000E+00
    -12.319  0.0000E+00  0.0000E+00
    -12.309  0.0000E+00  0.0000E+00
    -12.299  0.0000E+00  0.0000E+00
    -12.289  0.0000E+00  0.0000E+00
    -12.279  0.0000E+00  0.0000E+00
    -12.269  0.0000E+00  0.0000E+00
    -12.259  0.0000E+00  0.0000E+00
    -12.249  0.0000E+00  0.0000E+00
    -12.239  0.0000E+00  0.0000E+00
    -12.229  0.0000E+00  0.0000E+00
    -12.219  0.0000E+00  0.0000E+00
    -12.209  0.0000E+00  0.0000E+00
    -12.199  0.0000E+00  0.0000E+00
    -12.189  0.0000E+00  0.0000E+00
    -12.179  0.0000E+00  0.0000E+00
    -12.169  0.0000E+00  0.0000E+00
    -12.159  0.0000E+00  0.0000E+00
    -12.149  0.0000E+00  0.0000E+00
    -12.139  0.0000E+00  0.0000E+00
    -12.129  0.0000E+00  0.0000E+00
    -12.119  0.0000E+00  0.0000E+00
    -12.109  0.0000E+00  0.0000E+00
    -12.099  0.0000E+00  0.0000E+00
    -12.089  0.0000E+00  0.0000E+00
    -12.079  0.0000E+00  0.0000E+00
    -12.069  0.0000E+00  0.0000E+00
    -12.059  0.0000E+00  0.0000E+00
    -12.049  0.0000E+00  0.0000E+00
    -12.039  0.0000E+00  0.0000E+00
    -12.029  0.0000E+00  0.0000E+00
    -12.019  0.0000E+00  0.0000E+00
    -12.009  0.0000E+00  0.0000E+00
    -11.999  0.0000E+00  0.0000E+00
    -11.989  0.0000E+00  0.0000E+00
    -11.979  0.0000E+00  0.0000E+00
    -11.969  0.0000E+00  0.0000E+00
    -11.959  0.0000E+00  0.0000E+00
    -11.949  0.0000E+00  0.0000E+00
    -11.939  0.0000E+00  0.0000E+00
    -11.929  0.0000E+00  0.0000E+00
    -11.919  0.0000E+00  0.0000E+00
    -11.909  0.0000E+00  0.0000E+00
    -11.899  0.0000E+00  0.0000E+00
    -11.889  0.0000E+00  0.0000E+00
    -11.879  0.0000E+00  0.0000E+00
    -11.869  0.0000E+00  0.0000E+00
    -11.859  0.0000E+00  0.0000E+00
    -11.849  0.0000E+00  0.0000E+00
    -11.839  0.0000E+00  0.0000E+00
    -11.829  0.0000E+00  0.0000E+00
    -11.819  0.0000E+00  0.0000E+00
    -11.809  0.0000E+00  0.0000E+00
    -11.799  0.0000E+00  0.0000E+00
    -11.789  0.0000E+00  0.0000E+00
    -11.779  0.0000E+00  0.0000E+00
    -11.769  0.0000E+00  0.0000E+00
    -11.759  0.0000E+00  0.0000E+00
    -11.749  0.0000E+00  0.0000E+00
    -11.739  0.0000E+00  0.0000E+00
    -11.729  0.0000E+00  0.0000E+00
    -11.719  0.0000E+00  0.0000E+00
    -11.709  0.0000E+00  0.0000E+00
    -11.699  0.0000E+00  0.0000E+00
    -11.689  0.0000E+00  0.0000E+00
    -11.679  0.0000E+00  0.0000E+00
    -11.669  0.0000E+00  0.0000E+00
    -11.659  0.0000E+00  0.0000E+00
    -11.649  0.0000E+00  0.0000E+00
    -11.639  0.0000E+00  0.0000E+00
    -11.629  0.0000E+00  0.0000E+00
    -11.619  0.0000E+00  0.0000E+00
    -11.609  0.0000E+00  0.0000E+00
    -11.599  0.0000E+00  0.0000E+00
    -11.589  0.0000E+00  0.0000E+00
    -11.579  0.0000E+00  0.0000E+00
    -11.569  0.0000E+00  0.0000E+00
    -11.559  0.0000E+00  0.0000E+00
    -11.549  0.0000E+00  0.0000E+00
    -11.539  0.0000E+00  0.0000E+00
    -11.529  0.0000E+00  0.0000E+00
    -11.519  0.0000E+00  0.0000E+00
    -11.509  0.0000E+00  0.0000E+00
    -11.499  0.0000E+00  0.0000E+00
    -11.489  0.0000E+00  0.0000E+00
    -11.479  0.0000E+00  0.0000E+00
    -11.469  0.0000E+00  0.0000E+00
    -11.459  0.0000E+00  0.0000E+00
    -11.449  0.0000E+00  0.0000E+00
    -11.439  0.0000E+00  0.0000E+00
    -11.429  0.0000E+00  0.0000E+00
    -11.419  0.0000E+00  0.0000E+00
    -11.409  0.0000E+00  0.0000E+00
    -11.399  0.0000E+00  0.0000E+00
    -11.389  0.0000E+00  0.0000E+00
    -11.379  0.0000E+00  0.0000E+00
    -11.369  0.0000E+00  0.0000E+00
    -11.359  0.0000E+00  0.0000E+00
    -11.349  0.0000E+00  0.0000E+00
    -11.339  0.0000E+00  0.0000E+00
    -11.329  0.0000E+00  0.0000E+00
    -11.319  0.0000E+00  0.0000E+00
    -11.309  0.0000E+00  0.0000E+00
    -11.299  0.0000E+00  0.0000E+00
    -11.289  0.0000E+00  0.0000E+00
    -11.279  0.0000E+00  0.0000E+00
    -11.269  0.0000E+00  0.0000E+00
    -11.259  0.0000E+00  0.0000E+00
    -11.249  0.0000E+00  0.0000E+00
    -11.239  0.0000E+00  0.0000E+00
    -11.229  0.0000E+00  0.0000E+00
    -11.219  0.0000E+00  0.0000E+00
    -11.209  0.0000E+00  0.0000E+00
    -11.199  0.0000E+00  0.0000E+00
    -11.189  0.0000E+00  0.0000E+00
    -11.179  0.0000E+00  0.0000E+00
    -11.169  0.0000E+00  0.0000E+00
    -11.159  0.0000E+00  0.0000E+00
    -11.149  0.0000E+00  0.0000E+00
    -11.139  0.0000E+00  0.0000E+00
    -11.129  0.0000E+00  0.0000E+00
    -11.119  0.0000E+00  0.0000E+00
    -11.109  0.0000E+00  0.0000E+00
    -11.099  0.0000E+00  0.0000E+00
    -11.089  0.0000E+00  0.0000E+00
    -11.079  0.0000E+00  0.0000E+00
    -11.069  0.0000E+00  0.0000E+00
    -11.059  0.0000E+00  0.0000E+00
    -11.049  0.0000E+00  0.0000E+00
    -11.039  0.0000E+00  0.0000E+00
    -11.029  0.0000E+00  0.0000E+00
    -11.019  0.0000E+00  0.0000E+00
    -11.009  0.0000E+00  0.0000E+00
    -10.999  0.0000E+00  0.0000E+00
    -10.989  0.0000E+00  0.0000E+00
    -10.979  0.0000E+00  0.0000E+00
    -10.969  0.0000E+00  0.0000E+00
    -10.959  0.0000E+00  0.0000E+00
    -10.949  0.0000E+00  0.0000E+00
    -10.939  0.0000E+00  0.0000E+00
    -10.929  0.0000E+00  0.0000E+00
    -10.919  0.0000E+00  0.0000E+00
    -10.909  0.0000E+00  0.0000E+00
    -10.899  0.0000E+00  0.0000E+00
    -10.889  0.0000E+00  0.0000E+00
    -10.879  0.0000E+00  0.0000E+00
    -10.869  0.0000E+00  0.0000E+00
    -10.859  0.0000E+00  0.0000E+00
    -10.849  0.0000E+00  0.0000E+00
    -10.839  0.0000E+00  0.0000E+00
    -10.829  0.0000E+00  0.0000E+00
    -10.819  0.0000E+00  0.0000E+00
    -10.809  0.0000E+00  0.0000E+00
    -10.799  0.0000E+00  0.0000E+00
    -10.789  0.0000E+00  0.0000E+00
    -10.779  0.0000E+00  0.0000E+00
    -10.769  0.0000E+00  0.0000E+00
    -10.759  0.0000E+00  0.0000E+00
    -10.749  0.0000E+00  0.0000E+00
    -10.739  0.0000E+00  0.0000E+00
    -10.729  0.0000E+00  0.0000E+00
    -10.719  0.0000E+00  0.0000E+00
    -10.709  0.0000E+00  0.0000E+00
    -10.699  0.0000E+00  0.0000E+00
    -10.689  0.0000E+00  0.0000E+00
    -10.679  0.0000E+00  0.0000E+00
    -10.669  0.0000E+00  0.0000E+00
    -10.659  0.0000E+00  0.0000E+00
    -10.649  0.0000E+00  0.0000E+00
    -10.639  0.0000E+00  0.0000E+00
    -10.629  0.0000E+00  0.0000E+00
    -10.619  0.0000E+00  0.0000E+00
    -10.609  0.0000E+00  0.0000E+00
    -10.599  0.0000E+00  0.0000E+00
    -10.589  0.0000E+00  0.0000E+00
    -10.579  0.0000E+00  0.0000E+00
    -10.569  0.0000E+00  0.0000E+00
    -10.559  0.0000E+00  0.0000E+00
    -10.549  0.0000E+00  0.0000E+00
    -10.539  0.0000E+00  0.0000E+00
    -10.529  0.0000E+00  0.0000E+00
    -10.519  0.0000E+00  0.0000E+00
    -10.509  0.0000E+00  0.0000E+00
    -10.498  0.0000E+00  0.0000E+00
    -10.488  0.0000E+00  0.0000E+00
    -10.478  0.0000E+00  0.0000E+00
    -10.468  0.0000E+00  0.0000E+00
    -10.458  0.0000E+00  0.0000E+00
    -10.448  0.0000E+00  0.0000E+00
    -10.438  0.0000E+00  0.0000E+00
    -10.428  0.0000E+00  0.0000E+00
    -10.418  0.0000E+00  0.0000E+00
    -10.408  0.0000E+00  0.0000E+00
    -10.398  0.0000E+00  0.0000E+00
    -10.388  0.0000E+00  0.0000E+00
    -10.378  0.0000E+00  0.0000E+00
    -10.368  0.0000E+00  0.0000E+00
    -10.358  0.0000E+00  0.0000E+00
    -10.348  0.0000E+00  0.0000E+00
    -10.338  0.0000E+00  0.0000E+00
    -10.328  0.0000E+00  0.0000E+00
    -10.318  0.0000E+00  0.0000E+00
    -10.308  0.0000E+00  0.0000E+00
    -10.298  0.0000E+00  0.0000E+00
    -10.288  0.0000E+00  0.0000E+00
    -10.278  0.0000E+00  0.0000E+00
    -10.268  0.0000E+00  0.0000E+00
    -10.258  0.0000E+00  0.0000E+00
    -10.248  0.0000E+00  0.0000E+00
    -10.238  0.0000E+00  0.0000E+00
    -10.228  0.0000E+00  0.0000E+00
    -10.218  0.0000E+00  0.0000E+00
    -10.208  0.0000E+00  0.0000E+00
    -10.198  0.0000E+00  0.0000E+00
    -10.188  0.0000E+00  0.0000E+00
    -10.178  0.0000E+00  0.0000E+00
    -10.168  0.0000E+00  0.0000E+00
    -10.158  0.0000E+00  0.0000E+00
    -10.148  0.0000E+00  0.0000E+00
    -10.138  0.0000E+00  0.0000E+00
    -10.128  0.0000E+00  0.0000E+00
    -10.118  0.0000E+00  0.0000E+00
    -10.108  0.0000E+00  0.0000E+00
    -10.098  0.0000E+00  0.0000E+00
    -10.088  0.0000E+00  0.0000E+00
    -10.078  0.0000E+00  0.0000E+00
    -10.068  0.0000E+00  0.0000E+00
    -10.058  0.0000E+00  0.0000E+00
    -10.048  0.0000E+00  0.0000E+00
    -10.038  0.0000E+00  0.0000E+00
    -10.028  0.0000E+00  0.0000E+00
    -10.018  0.0000E+00  0.0000E+00
    -10.008  0.0000E+00  0.0000E+00
     -9.998  0.0000E+00  0.0000E+00
     -9.988  0.0000E+00  0.0000E+00
     -9.978  0.0000E+00  0.0000E+00
     -9.968  0.0000E+00  0.0000E+00
     -9.958  0.0000E+00  0.0000E+00
     -9.948  0.0000E+00  0.0000E+00
     -9.938  0.0000E+00  0.0000E+00
     -9.928  0.0000E+00  0.0000E+00
     -9.918  0.0000E+00  0.0000E+00
     -9.908  0.0000E+00  0.0000E+00
     -9.898  0.0000E+00  0.0000E+00
     -9.888  0.0000E+00  0.0000E+00
     -9.878  0.0000E+00  0.0000E+00
     -9.868  0.0000E+00  0.0000E+00
     -9.858  0.0000E+00  0.0000E+00
     -9.848  0.0000E+00  0.0000E+00
     -9.838  0.0000E+00  0.0000E+00
     -9.828  0.0000E+00  0.0000E+00
     -9.818  0.0000E+00  0.0000E+00
     -9.808  0.0000E+00  0.0000E+00
     -9.798  0.0000E+00  0.0000E+00
     -9.788  0.0000E+00  0.0000E+00
     -9.778  0.0000E+00  0.0000E+00
     -9.768  0.0000E+00  0.0000E+00
     -9.758  0.0000E+00  0.0000E+00
     -9.748  0.0000E+00  0.0000E+00
     -9.738  0.0000E+00  0.0000E+00
     -9.728  0.0000E+00  0.0000E+00
     -9.718  0.0000E+00  0.0000E+00
     -9.708  0.0000E+00  0.0000E+00
     -9.698  0.0000E+00  0.0000E+00
     -9.688  0.0000E+00  0.0000E+00
     -9.678  0.0000E+00  0.0000E+00
     -9.668  0.0000E+00  0.0000E+00
     -9.658  0.0000E+00  0.0000E+00
     -9.648  0.0000E+00  0.0000E+00
     -9.638  0.0000E+00  0.0000E+00
     -9.628  0.0000E+00  0.0000E+00
     -9.618  0.0000E+00  0.0000E+00
     -9.608  0.0000E+00  0.0000E+00
     -9.598  0.0000E+00  0.0000E+00
     -9.588  0.0000E+00  0.0000E+00
     -9.578  0.0000E+00  0.0000E+00
     -9.568  0.0000E+00  0.0000E+00
     -9.558  0.0000E+00  0.0000E+00
     -9.548  0.0000E+00  0.0000E+00
     -9.538  0.0000E+00  0.0000E+00
     -9.528  0.0000E+00  0.0000E+00
     -9.518  0.0000E+00  0.0000E+00
     -9.508  0.0000E+00  0.0000E+00
     -9.498  0.0000E+00  0.0000E+00
     -9.488  0.0000E+00  0.0000E+00
     -9.478  0.0000E+00  0.0000E+00
     -9.468  0.0000E+00  0.0000E+00
     -9.458  0.0000E+00  0.0000E+00
     -9.448  0.0000E+00  0.0000E+00
     -9.438  0.0000E+00  0.0000E+00
     -9.428  0.0000E+00  0.0000E+00
     -9.418  0.0000E+00  0.0000E+00
     -9.408  0.0000E+00  0.0000E+00
     -9.398  0.0000E+00  0.0000E+00
     -9.388  0.0000E+00  0.0000E+00
     -9.378  0.0000E+00  0.0000E+00
     -9.368  0.0000E+00  0.0000E+00
     -9.358  0.0000E+00  0.0000E+00
     -9.348  0.0000E+00  0.0000E+00
     -9.338  0.0000E+00  0.0000E+00
     -9.328  0.0000E+00  0.0000E+00
     -9.318  0.0000E+00  0.0000E+00
     -9.308  0.0000E+00  0.0000E+00
     -9.298  0.0000E+00  0.0000E+00
     -9.288  0.0000E+00  0.0000E+00
     -9.278  0.0000E+00  0.0000E+00
     -9.268  0.0000E+00  0.0000E+00
     -9.258  0.0000E+00  0.0000E+00
     -9.248  0.0000E+00  0.0000E+00
     -9.238  0.0000E+00  0.0000E+00
     -9.228  0.0000E+00  0.0000E+00
     -9.218  0.0000E+00  0.0000E+00
     -9.208  0.0000E+00  0.0000E+00
     -9.198  0.0000E+00  0.0000E+00
     -9.188  0.0000E+00  0.0000E+00
     -9.178  0.0000E+00  0.0000E+00
     -9.168  0.0000E+00  0.0000E+00
     -9.158  0.0000E+00  0.0000E+00
     -9.148  0.0000E+00  0.0000E+00
     -9.138  0.0000E+00  0.0000E+00
     -9.128  0.0000E+00  0.0000E+00
     -9.118  0.0000E+00  0.0000E+00
     -9.108  0.0000E+00  0.0000E+00
     -9.098  0.0000E+00  0.0000E+00
     -9.088  0.0000E+00  0.0000E+00
     -9.078  0.0000E+00  0.0000E+00
     -9.068  0.0000E+00  0.0000E+00
     -9.058  0.0000E+00  0.0000E+00
     -9.048  0.0000E+00  0.0000E+00
     -9.038  0.0000E+00  0.0000E+00
     -9.028  0.0000E+00  0.0000E+00
     -9.018  0.0000E+00  0.0000E+00
     -9.008  0.0000E+00  0.0000E+00
     -8.998  0.0000E+00  0.0000E+00
     -8.988  0.0000E+00  0.0000E+00
     -8.978  0.0000E+00  0.0000E+00
     -8.968  0.0000E+00  0.0000E+00
     -8.958  0.0000E+00  0.0000E+00
     -8.948  0.0000E+00  0.0000E+00
     -8.938  0.0000E+00  0.0000E+00
     -8.928  0.0000E+00  0.0000E+00
     -8.918  0.0000E+00  0.0000E+00
     -8.908  0.0000E+00  0.0000E+00
     -8.898  0.0000E+00  0.0000E+00
     -8.888  0.0000E+00  0.0000E+00
     -8.878  0.0000E+00  0.0000E+00
     -8.868  0.0000E+00  0.0000E+00
     -8.858  0.0000E+00  0.0000E+00
     -8.848  0.0000E+00  0.0000E+00
     -8.838  0.0000E+00  0.0000E+00
     -8.828  0.0000E+00  0.0000E+00
     -8.818  0.0000E+00  0.0000E+00
     -8.808  0.0000E+00  0.0000E+00
     -8.798  0.0000E+00  0.0000E+00
     -8.788  0.0000E+00  0.0000E+00
     -8.778  0.0000E+00  0.0000E+00
     -8.768  0.0000E+00  0.0000E+00
     -8.758  0.0000E+00  0.0000E+00
     -8.748  0.0000E+00  0.0000E+00
     -8.738  0.0000E+00  0.0000E+00
     -8.728  0.0000E+00  0.0000E+00
     -8.718  0.0000E+00  0.0000E+00
     -8.708  0.0000E+00  0.0000E+00
     -8.698  0.0000E+00  0.0000E+00
     -8.688  0.0000E+00  0.0000E+00
     -8.678  0.0000E+00  0.0000E+00
     -8.668  0.0000E+00  0.0000E+00
     -8.658  0.0000E+00  0.0000E+00
     -8.648  0.0000E+00  0.0000E+00
     -8.638  0.0000E+00  0.0000E+00
     -8.628  0.0000E+00  0.0000E+00
     -8.618  0.0000E+00  0.0000E+00
     -8.608  0.0000E+00  0.0000E+00
     -8.598  0.0000E+00  0.0000E+00
     -8.588  0.0000E+00  0.0000E+00
     -8.578  0.0000E+00  0.0000E+00
     -8.568  0.0000E+00  0.0000E+00
     -8.558  0.0000E+00  0.0000E+00
     -8.548  0.0000E+00  0.0000E+00
     -8.538  0.0000E+00  0.0000E+00
     -8.528  0.0000E+00  0.0000E+00
     -8.518  0.0000E+00  0.0000E+00
     -8.508  0.0000E+00  0.0000E+00
     -8.498  0.0000E+00  0.0000E+00
     -8.488  0.0000E+00  0.0000E+00
     -8.478  0.0000E+00  0.0000E+00
     -8.468  0.0000E+00  0.0000E+00
     -8.458  0.0000E+00  0.0000E+00
     -8.448  0.0000E+00  0.0000E+00
     -8.438  0.0000E+00  0.0000E+00
     -8.428  0.0000E+00  0.0000E+00
     -8.418  0.0000E+00  0.0000E+00
     -8.408  0.0000E+00  0.0000E+00
     -8.398  0.0000E+00  0.0000E+00
     -8.388  0.0000E+00  0.0000E+00
     -8.378  0.0000E+00  0.0000E+00
     -8.368  0.0000E+00  0.0000E+00
     -8.358  0.0000E+00  0.0000E+00
     -8.348  0.0000E+00  0.0000E+00
     -8.338  0.0000E+00  0.0000E+00
     -8.328  0.0000E+00  0.0000E+00
     -8.318  0.0000E+00  0.0000E+00
     -8.308  0.0000E+00  0.0000E+00
     -8.298  0.0000E+00  0.0000E+00
     -8.288  0.0000E+00  0.0000E+00
     -8.278  0.0000E+00  0.0000E+00
     -8.268  0.0000E+00  0.0000E+00
     -8.258  0.0000E+00  0.0000E+00
     -8.248  0.0000E+00  0.0000E+00
     -8.238  0.0000E+00  0.0000E+00
     -8.228  0.0000E+00  0.0000E+00
     -8.218  0.0000E+00  0.0000E+00
     -8.208  0.0000E+00  0.0000E+00
     -8.198  0.0000E+00  0.0000E+00
     -8.188  0.0000E+00  0.0000E+00
     -8.178  0.0000E+00  0.0000E+00
     -8.168  0.0000E+00  0.0000E+00
     -8.158  0.0000E+00  0.0000E+00
     -8.148  0.0000E+00  0.0000E+00
     -8.138  0.1586E-15  0.1586E-17
     -8.128  0.2378E-14  0.2538E-16
     -8.118  0.2283E-13  0.2538E-15
     -8.108  0.2054E-12  0.2309E-14
     -8.098  0.1698E-11  0.1930E-13
     -8.088  0.1299E-10  0.1493E-12
     -8.078  0.9183E-10  0.1068E-11
     -8.068  0.5998E-09  0.7067E-11
     -8.058  0.3620E-08  0.4328E-10
     -8.048  0.2020E-07  0.2453E-09
     -8.038  0.1041E-06  0.1287E-08
     -8.028  0.4964E-06  0.6253E-08
     -8.018  0.2188E-05  0.2814E-07
     -8.008  0.8913E-05  0.1173E-06
     -7.998  0.3358E-04  0.4532E-06
     -7.988  0.1170E-03  0.1624E-05
     -7.978  0.3772E-03  0.5397E-05
     -7.968  0.1125E-02  0.1665E-04
     -7.958  0.3104E-02  0.4770E-04
     -7.948  0.7931E-02  0.1270E-03
     -7.938  0.1876E-01  0.3147E-03
     -7.928  0.4113E-01  0.7261E-03
     -7.918  0.8355E-01  0.1562E-02
     -7.908  0.1574E+00  0.3137E-02
     -7.898  0.2753E+00  0.5891E-02
     -7.888  0.4475E+00  0.1037E-01
     -7.878  0.6765E+00  0.1713E-01
     -7.868  0.9530E+00  0.2667E-01
     -7.858  0.1254E+01  0.3921E-01
     -7.848  0.1544E+01  0.5466E-01
     -7.838  0.1787E+01  0.7254E-01
     -7.828  0.1953E+01  0.9207E-01
     -7.818  0.2026E+01  0.1123E+00
     -7.808  0.2011E+01  0.1325E+00
     -7.798  0.1925E+01  0.1517E+00
     -7.788  0.1797E+01  0.1697E+00
     -7.778  0.1653E+01  0.1862E+00
     -7.768  0.1512E+01  0.2014E+00
     -7.758  0.1387E+01  0.2152E+00
     -7.748  0.1281E+01  0.2280E+00
     -7.738  0.1195E+01  0.2400E+00
     -7.728  0.1124E+01  0.2512E+00
     -7.718  0.1067E+01  0.2619E+00
     -7.708  0.1019E+01  0.2721E+00
     -7.698  0.9778E+00  0.2819E+00
     -7.688  0.9423E+00  0.2913E+00
     -7.678  0.9110E+00  0.3004E+00
     -7.668  0.8831E+00  0.3093E+00
     -7.658  0.8580E+00  0.3178E+00
     -7.648  0.8352E+00  0.3262E+00
     -7.638  0.8144E+00  0.3343E+00
     -7.628  0.7953E+00  0.3423E+00
     -7.618  0.7777E+00  0.3501E+00
     -7.608  0.7614E+00  0.3577E+00
     -7.598  0.7462E+00  0.3652E+00
     -7.588  0.7321E+00  0.3725E+00
     -7.578  0.7190E+00  0.3797E+00
     -7.568  0.7066E+00  0.3867E+00
     -7.558  0.6951E+00  0.3937E+00
     -7.548  0.6842E+00  0.4005E+00
     -7.538  0.6738E+00  0.4073E+00
     -7.528  0.6641E+00  0.4139E+00
     -7.518  0.6549E+00  0.4205E+00
     -7.508  0.6463E+00  0.4269E+00
     -7.497  0.6381E+00  0.4333E+00
     -7.487  0.6302E+00  0.4396E+00
     -7.477  0.6226E+00  0.4459E+00
     -7.467  0.6155E+00  0.4520E+00
     -7.457  0.6089E+00  0.4581E+00
     -7.447  0.6026E+00  0.4641E+00
     -7.437  0.5966E+00  0.4701E+00
     -7.427  0.5906E+00  0.4760E+00
     -7.417  0.5848E+00  0.4819E+00
     -7.407  0.5794E+00  0.4877E+00
     -7.397  0.5746E+00  0.4934E+00
     -7.387  0.5701E+00  0.4991E+00
     -7.377  0.5656E+00  0.5048E+00
     -7.367  0.5610E+00  0.5104E+00
     -7.357  0.5565E+00  0.5159E+00
     -7.347  0.5524E+00  0.5215E+00
     -7.337  0.5489E+00  0.5270E+00
     -7.327  0.5458E+00  0.5324E+00
     -7.317  0.5426E+00  0.5378E+00
     -7.307  0.5393E+00  0.5432E+00
     -7.297  0.5358E+00  0.5486E+00
     -7.287  0.5326E+00  0.5539E+00
     -7.277  0.5300E+00  0.5592E+00
     -7.267  0.5280E+00  0.5645E+00
     -7.257  0.5261E+00  0.5698E+00
     -7.247  0.5239E+00  0.5750E+00
     -7.237  0.5214E+00  0.5802E+00
     -7.227  0.5190E+00  0.5854E+00
     -7.217  0.5171E+00  0.5906E+00
     -7.207  0.5159E+00  0.5958E+00
     -7.197  0.5152E+00  0.6009E+00
     -7.187  0.5144E+00  0.6061E+00
     -7.177  0.5131E+00  0.6112E+00
     -7.167  0.5116E+00  0.6163E+00
     -7.157  0.5105E+00  0.6214E+00
     -7.147  0.5101E+00  0.6265E+00
     -7.137  0.5105E+00  0.6316E+00
     -7.127  0.5113E+00  0.6367E+00
     -7.117  0.5119E+00  0.6419E+00
     -7.107  0.5129E+00  0.6470E+00
     -7.097  0.5157E+00  0.6521E+00
     -7.087  0.5230E+00  0.6574E+00
     -7.077  0.5395E+00  0.6628E+00
     -7.067  0.5722E+00  0.6685E+00
     -7.057  0.6324E+00  0.6748E+00
     -7.047  0.7351E+00  0.6822E+00
     -7.037  0.8973E+00  0.6912E+00
     -7.027  0.1133E+01  0.7025E+00
     -7.017  0.1446E+01  0.7170E+00
     -7.007  0.1822E+01  0.7352E+00
     -6.997  0.2230E+01  0.7575E+00
     -6.987  0.2623E+01  0.7837E+00
     -6.977  0.2951E+01  0.8132E+00
     -6.967  0.3176E+01  0.8450E+00
     -6.957  0.3283E+01  0.8779E+00
     -6.947  0.3285E+01  0.9107E+00
     -6.937  0.3213E+01  0.9428E+00
     -6.927  0.3112E+01  0.9740E+00
     -6.917  0.3025E+01  0.1004E+01
     -6.907  0.2983E+01  0.1034E+01
     -6.897  0.3000E+01  0.1064E+01
     -6.887  0.3071E+01  0.1095E+01
     -6.877  0.3174E+01  0.1127E+01
     -6.867  0.3279E+01  0.1159E+01
     -6.857  0.3355E+01  0.1193E+01
     -6.847  0.3381E+01  0.1227E+01
     -6.837  0.3351E+01  0.1260E+01
     -6.827  0.3271E+01  0.1293E+01
     -6.817  0.3160E+01  0.1325E+01
     -6.807  0.3039E+01  0.1355E+01
     -6.797  0.2927E+01  0.1384E+01
     -6.787  0.2838E+01  0.1413E+01
     -6.777  0.2780E+01  0.1440E+01
     -6.767  0.2756E+01  0.1468E+01
     -6.757  0.2761E+01  0.1496E+01
     -6.747  0.2786E+01  0.1524E+01