    3    3    1    1
  0.3508934E+02  0.4518641E-09  0.4518641E-09  0.5953197E-09  0.5000000E-15
   1.0000000000000000E-004
  CAR 
 Te-a                                    
     18    210     14

  0.0000000E+00  0.0000000E+00  0.0000000E+00  0.4761905E-02
    1       -7.843683   1.000000
    2       -4.676803   1.000000
    3       -4.676797   1.000000
    4        2.554595   1.000000
    5        2.818135   1.000000
    6        2.818139   1.000000
    7        3.915379   1.000000
    8        3.915390   1.000000
    9        4.726108   1.000000
   10        6.524844   0.000000
   11        6.524849   0.000000
   12        7.078727   0.000000
   13       10.577284   0.000000
   14       10.577287   0.000000

  0.1149414E-01  0.1149414E-01  0.0000000E+00  0.4761905E-02
    1       -7.841148   1.000000
    2       -4.677605   1.000000
    3       -4.676225   1.000000
    4        2.527882   1.000000
    5        2.795793   1.000000
    6        2.815020   1.000000
    7        3.925486   1.000000
    8        3.947454   1.000000
    9        4.733370   1.000000
   10        6.512732   0.000000
   11        6.522607   0.000000
   12        7.073271   0.000000
   13       10.573255   0.000000
   14       10.574466   0.000000

  0.2298828E-01  0.2298828E-01  0.0000000E+00  0.4761905E-02
    1       -7.833505   1.000000
    2       -4.680035   1.000000
    3       -4.674537   1.000000
    4        2.453194   1.000000
    5        2.733015   1.000000
    6        2.808241   1.000000
    7        3.951468   1.000000
    8        4.035135   1.000000
    9        4.754628   1.000000
   10        6.477640   0.000000
   11        6.515815   0.000000
   12        7.058279   0.000000
   13       10.560285   0.000000
   14       10.564685   0.000000

  0.3448241E-01  0.3448241E-01  0.0000000E+00  0.4761905E-02
    1       -7.820786   1.000000
    2       -4.684148   1.000000
    3       -4.671808   1.000000
    4        2.344355   1.000000
    5        2.639614   1.000000
    6        2.800791   1.000000
    7        3.983705   1.000000
    8        4.160121   1.000000
    9        4.787910   1.000000
   10        6.423276   0.000000
   11        6.504573   0.000000
   12        7.037564   0.000000
   13       10.536272   0.000000
   14       10.544858   0.000000

  0.4597655E-01  0.4597655E-01  0.0000000E+00  0.4761905E-02
    1       -7.803041   1.000000
    2       -4.690044   1.000000
    3       -4.668170   1.000000
    4        2.216149   1.000000
    5        2.525900   1.000000
    6        2.793111   1.000000
    7        4.013113   1.000000
    8        4.304279   1.000000
    9        4.828820   1.000000
   10        6.355690   0.000000
   11        6.489914   0.000000
   12        7.016325   0.000000
   13       10.499111   0.000000
   14       10.512339   0.000000

  0.5747069E-01  0.5747069E-01  0.0000000E+00  0.4761905E-02
    1       -7.780342   1.000000
    2       -4.697848   1.000000
    3       -4.663803   1.000000
    4        2.079568   1.000000
    5        2.400179   1.000000
    6        2.784686   1.000000
    7        4.034112   1.000000
    8        4.452215   1.000000
    9        4.870020   1.000000
   10        6.283387   0.000000
   11        6.474941   0.000000
   12        6.999681   0.000000
   13       10.448065   0.000000
   14       10.466940   0.000000

  0.6896483E-01  0.6896483E-01  0.0000000E+00  0.4761905E-02
    1       -7.752822   1.000000
    2       -4.707721   1.000000
    3       -4.658945   1.000000
    4        1.941781   1.000000
    5        2.268517   1.000000
    6        2.774974   1.000000
    7        4.044488   1.000000
    8        4.589454   1.000000
    9        4.901859   1.000000
   10        6.217771   0.000000
   11        6.465500   0.000000
   12        6.991310   0.000000
   13       10.384497   0.000000
   14       10.411345   0.000000

  0.8045897E-01  0.8045897E-01  0.0000000E+00  0.4761905E-02
    1       -7.720577   1.000000
    2       -4.719824   1.000000
    3       -4.653873   1.000000
    4        1.807444   1.000000
    5        2.135300   1.000000
    6        2.763543   1.000000
    7        4.044034   1.000000
    8        4.700393   1.000000
    9        4.914271   1.000000
   10        6.173433   0.000000
   11        6.469280   0.000000
   12        6.992993   0.000000
   13       10.311640   0.000000
   14       10.349983   0.000000

  0.9195310E-01  0.9195310E-01  0.0000000E+00  0.4761905E-02
    1       -7.683757   1.000000
    2       -4.734311   1.000000
    3       -4.648903   1.000000
    4        1.679691   1.000000
    5        2.003780   1.000000
    6        2.750064   1.000000
    7        4.033353   1.000000
    8        4.769070   1.000000
    9        4.899540   1.000000
   10        6.166342   0.000000
   11        6.493160   0.000000
   12        7.005107   0.000000
   13       10.233698   0.000000
   14       10.287587   0.000000

  0.1034472E+00  0.1034472E+00  0.0000000E+00  0.4761905E-02
    1       -7.642544   1.000000
    2       -4.751315   1.000000
    3       -4.644385   1.000000
    4        1.560705   1.000000
    5        1.876432   1.000000
    6        2.734253   1.000000
    7        4.013154   1.000000
    8        4.784840   1.000000
    9        4.854585   1.000000
   10        6.207470   0.000000
   11        6.540297   0.000000
   12        7.027440   0.000000
   13       10.154942   0.000000
   14       10.228333   0.000000

  0.1149414E+00  0.1149414E+00  0.0000000E+00  0.4761905E-02
    1       -7.597159   1.000000
    2       -4.770940   1.000000
    3       -4.640706   1.000000
    4        1.452063   1.000000
    5        1.755217   1.000000
    6        2.715900   1.000000
    7        3.984010   1.000000
    8        4.748880   1.000000
    9        4.781307   1.000000
   10        6.296024   0.000000
   11        6.609195   0.000000
   12        7.059841   0.000000
   13       10.079158   0.000000
   14       10.175519   0.000000

  0.1264355E+00  0.1264355E+00  0.0000000E+00  0.4761905E-02
    1       -7.547898   1.000000
    2       -4.793229   1.000000
    3       -4.638268   1.000000
    4        1.354909   1.000000
    5        1.641721   1.000000
    6        2.694843   1.000000
    7        3.946288   1.000000
    8        4.672352   1.000000
    9        4.684874   1.000000
   10        6.421118   0.000000
   11        6.694943   0.000000
   12        7.102586   0.000000
   13       10.009471   0.000000
   14       10.131608   0.000000

  0.1379297E+00  0.1379297E+00  0.0000000E+00  0.4761905E-02
    1       -7.495039   1.000000
    2       -4.818156   1.000000
    3       -4.637484   1.000000
    4        1.270053   1.000000
    5        1.537249   1.000000
    6        2.670995   1.000000
    7        3.900165   1.000000
    8        4.568630   1.000000
    9        4.571541   1.000000
   10        6.569536   0.000000
   11        6.791177   0.000000
   12        7.156562   0.000000
   13        9.948349   0.000000
   14       10.098356   0.000000

  0.1494238E+00  0.1494238E+00  0.0000000E+00  0.4761905E-02
    1       -7.438934   1.000000
    2       -4.845589   1.000000
    3       -4.638760   1.000000
    4        1.198033   1.000000
    5        1.442885   1.000000
    6        2.644370   1.000000
    7        3.845663   1.000000
    8        4.447258   1.000000
    9        4.448461   1.000000
   10        6.730565   0.000000
   11        6.891473   0.000000
   12        7.223196   0.000000
   13        9.897680   0.000000
   14       10.076946   0.000000

  0.1609179E+00  0.1609179E+00  0.0000000E+00  0.4761905E-02
    1       -7.380004   1.000000
    2       -4.875283   1.000000
    3       -4.642481   1.000000
    4        1.139142   1.000000
    5        1.359514   1.000000
    6        2.615109   1.000000
    7        3.782672   1.000000
    8        4.317196   1.000000
    9        4.319281   1.000000
   10        6.896745   0.000000
   11        6.990411   0.000000
   12        7.303855   0.000000
   13        9.858850   0.000000
   14       10.068111   0.000000

  0.1724121E+00  0.1724121E+00  0.0000000E+00  0.4761905E-02
    1       -7.318747   1.000000
    2       -4.906859   1.000000
    3       -4.648990   1.000000
    4        1.093419   1.000000
    5        1.287815   1.000000
    6        2.583494   1.000000
    7        3.710965   1.000000
    8        4.185709   1.000000
    9        4.185991   1.000000
   10        7.063061   0.000000
   11        7.084770   0.000000
   12        7.398575   0.000000
   13        9.832794   0.000000
   14       10.072230   0.000000

  0.1839062E+00  0.1839062E+00  0.0000000E+00  0.4761905E-02
    1       -7.255761   1.000000
    2       -4.939792   1.000000
    3       -4.658569   1.000000
    4        1.060671   1.000000
    5        1.228275   1.000000
    6        2.550016   1.000000
    7        3.630352   1.000000
    8        4.051860   1.000000
    9        4.056470   1.000000
   10        7.174220   0.000000
   11        7.226118   0.000000
   12        7.505167   0.000000
   13        9.820043   0.000000
   14       10.089416   0.000000

  0.1954003E+00  0.1954003E+00  0.0000000E+00  0.4761905E-02
    1       -7.191704   1.000000
    2       -4.973405   1.000000
    3       -4.671438   1.000000
    4        1.040447   1.000000
    5        1.181158   1.000000
    6        2.515384   1.000000
    7        3.540923   1.000000
    8        3.919072   1.000000
    9        3.932361   1.000000
   10        7.260421   0.000000
   11        7.383577   0.000000
   12        7.619881   0.000000
   13        9.820721   0.000000
   14       10.119577   0.000000

  0.2068945E+00  0.2068945E+00  0.0000000E+00  0.4761905E-02
    1       -7.127352   1.000000
    2       -5.006870   1.000000
    3       -4.687737   1.000000
    4        1.032024   1.000000
    5        1.146482   1.000000
    6        2.480563   1.000000
    7        3.443486   1.000000
    8        3.789105   1.000000
    9        3.815214   1.000000
   10        7.345422   0.000000
   11        7.533762   0.000000
   12        7.738783   0.000000
   13        9.834556   0.000000
   14       10.162469   0.000000

  0.2183886E+00  0.2183886E+00  0.0000000E+00  0.4761905E-02
    1       -7.063617   1.000000
    2       -5.039208   1.000000
    3       -4.707529   1.000000
    4        1.034378   1.000000
    5        1.123989   1.000000
    6        2.446817   1.000000
    7        3.339920   1.000000
    8        3.662943   1.000000
    9        3.705614   1.000000
   10        7.430763   0.000000
   11        7.675432   0.000000
   12        7.858509   0.000000
   13        9.860871   0.000000
   14       10.217735   0.000000

  0.2298828E+00  0.2298828E+00  0.0000000E+00  0.4761905E-02
    1       -7.001523   1.000000
    2       -5.069274   1.000000
    3       -4.730759   1.000000
    4        1.046178   1.000000
    5        1.113122   1.000000
    6        2.415752   1.000000
    7        3.233094   1.000000
    8        3.541235   1.000000
    9        3.603089   1.000000
   10        7.517332   0.000000
   11        7.807594   0.000000
   12        7.976304   0.000000
   13        9.898620   0.000000
   14       10.284954   0.000000

  0.2413769E+00  0.2413769E+00  0.0000000E+00  0.4761905E-02
    1       -6.942240   1.000000
    2       -5.095804   1.000000
    3       -4.757285   1.000000
    4        1.065726   1.000000
    5        1.112960   1.000000
    6        2.389337   1.000000
    7        3.126373   1.000000
    8        3.424372   1.000000
    9        3.506697   1.000000
   10        7.605479   0.000000
   11        7.929286   0.000000
   12        8.089758   0.000000
   13        9.946397   0.000000
   14       10.363648   0.000000

  0.2528710E+00  0.2528710E+00  0.0000000E+00  0.4761905E-02
    1       -6.886991   1.000000
    2       -5.117451   1.000000
    3       -4.786874   1.000000
    4        1.090952   1.000000
    5        1.122155   1.000000
    6        2.369913   1.000000
    7        3.023142   1.000000
    8        3.312571   1.000000
    9        3.415615   1.000000
   10        7.695180   0.000000
   11        8.039397   0.000000
   12        8.196590   0.000000
   13       10.002520   0.000000
   14       10.453324   0.000000

  0.2643652E+00  0.2643652E+00  0.0000000E+00  0.4761905E-02
    1       -6.837027   1.000000
    2       -5.132860   1.000000
    3       -4.819221   1.000000
    4        1.119444   1.000000
    5        1.138871   1.000000
    6        2.360153   1.000000
    7        2.926572   1.000000
    8        3.205953   1.000000
    9        3.329469   1.000000
   10        7.786128   0.000000
   11        8.136477   0.000000
   12        8.294476   0.000000
   13       10.065086   0.000000
   14       10.553477   0.000000

  0.2758593E+00  0.2758593E+00  0.0000000E+00  0.4761905E-02
    1       -6.793553   1.000000
    2       -5.140776   1.000000
    3       -4.853947   1.000000
    4        1.148572   1.000000
    5        1.160719   1.000000
    6        2.362883   1.000000
    7        2.839574   1.000000
    8        3.104566   1.000000
    9        3.248461   1.000000
   10        7.877780   0.000000
   11        8.218530   0.000000
   12        8.380948   0.000000
   13       10.132041   0.000000
   14       10.663616   0.000000

  0.2873534E+00  0.2873534E+00  0.0000000E+00  0.4761905E-02
    1       -6.757591   1.000000
    2       -5.140185   1.000000
    3       -4.890636   1.000000
    4        1.175752   1.000000
    5        1.184741   1.000000
    6        2.380773   1.000000
    7        2.764725   1.000000
    8        3.008460   1.000000
    9        3.173478   1.000000
   10        7.969355   0.000000
   11        8.282928   0.000000
   12        8.453429   0.000000
   13       10.201136   0.000000
   14       10.783267   0.000000

  0.2988476E+00  0.2988476E+00  0.0000000E+00  0.4761905E-02
    1       -6.729839   1.000000
    2       -5.130437   1.000000
    3       -4.928814   1.000000
    4        1.198868   1.000000
    5        1.207542   1.000000
    6        2.415846   1.000000
    7        2.703971   1.000000
    8        2.917815   1.000000
    9        3.106359   1.000000
   10        8.059741   0.000000
   11        8.326412   0.000000
   12        8.509378   0.000000
   13       10.269636   0.000000
   14       10.911990   0.000000

  0.3103417E+00  0.3103417E+00  0.0000000E+00  0.4761905E-02
    1       -6.710562   1.000000
    2       -5.111393   1.000000
    3       -4.968004   1.000000
    4        1.216621   1.000000
    5        1.225572   1.000000
    6        2.468729   1.000000
    7        2.657804   1.000000
    8        2.833264   1.000000
    9        3.050375   1.000000
   10        8.147213   0.000000
   11        8.345312   0.000000
   12        8.546703   0.000000
   13       10.333405   0.000000
   14       11.049394   0.000000

  0.3218359E+00  0.3218359E+00  0.0000000E+00  0.4761905E-02
    1       -6.699520   1.000000
    2       -5.083434   1.000000
    3       -5.007703   1.000000
    4        1.228747   1.000000
    5        1.235705   1.000000
    6        2.536706   1.000000
    7        2.623982   1.000000
    8        2.757675   1.000000
    9        3.010973   1.000000
   10        8.228532   0.000000
   11        8.336096   0.000000
   12        8.564907   0.000000
   13       10.384573   0.000000
   14       11.195143   0.000000

  0.3333300E+00  0.3333300E+00  0.0000000E+00  0.4761905E-02
    1       -6.696049   1.000000
    2       -5.047464   1.000000
    3       -5.047424   1.000000
    4        1.235905   1.000000
    5        1.235908   1.000000
    6        2.596694   1.000000
    7        2.596705   1.000000
    8        2.713205   1.000000
    9        2.995948   1.000000
   10        8.296126   0.000000
   11        8.296156   0.000000
   12        8.568278   0.000000
   13       10.407105   0.000000
   14       11.349029   0.000000

  0.3333300E+00  0.3333300E+00  0.0000000E+00  0.4761905E-02
    1       -6.696049   1.000000
    2       -5.047464   1.000000
    3       -5.047424   1.000000
    4        1.235905   1.000000
    5        1.235908   1.000000
    6        2.596694   1.000000
    7        2.596705   1.000000
    8        2.713205   1.000000
    9        2.995948   1.000000
   10        8.296126   0.000000
   11        8.296156   0.000000
   12        8.568278   0.000000
   13       10.407105   0.000000
   14       11.348978   0.000000

  0.3390772E+00  0.3218359E+00  0.0000000E+00  0.4761905E-02
    1       -6.696847   1.000000
    2       -5.067173   1.000000
    3       -5.026837   1.000000
    4        1.232067   1.000000
    5        1.238003   1.000000
    6        2.583116   1.000000
    7        2.594785   1.000000
    8        2.731065   1.000000
    9        3.000144   1.000000
   10        8.264281   0.000000
   11        8.319493   0.000000
   12        8.568897   0.000000
   13       10.399667   0.000000
   14       11.280461   0.000000

  0.3448245E+00  0.3103417E+00  0.0000000E+00  0.4761905E-02
    1       -6.699142   1.000000
    2       -5.086720   1.000000
    3       -5.004750   1.000000
    4        1.225690   1.000000
    5        1.239351   1.000000
    6        2.568505   1.000000
    7        2.572479   1.000000
    8        2.774444   1.000000
    9        3.013076   1.000000
   10        8.224588   0.000000
   11        8.331025   0.000000
   12        8.573349   0.000000
   13       10.375472   0.000000
   14       11.234575   0.000000

  0.3505717E+00  0.2988476E+00  0.0000000E+00  0.4761905E-02
    1       -6.702779   1.000000
    2       -5.106040   1.000000
    3       -4.981371   1.000000
    4        1.216945   1.000000
    5        1.240141   1.000000
    6        2.543538   1.000000
    7        2.552470   1.000000
    8        2.829316   1.000000
    9        3.034933   1.000000
   10        8.177306   0.000000
   11        8.327309   0.000000
   12        8.584951   0.000000
   13       10.333368   0.000000
   14       11.212495   0.000000

  0.3563190E+00  0.2873534E+00  0.0000000E+00  0.4761905E-02
    1       -6.707603   1.000000
    2       -5.125077   1.000000
    3       -4.956916   1.000000
    4        1.206069   1.000000
    5        1.240551   1.000000
    6        2.512946   1.000000
    7        2.534952   1.000000
    8        2.890426   1.000000
    9        3.065494   1.000000
   10        8.122826   0.000000
   11        8.307572   0.000000
   12        8.604446   0.000000
   13       10.274840   0.000000
   14       11.212661   0.000000

  0.3620662E+00  0.2758593E+00  0.0000000E+00  0.4761905E-02
    1       -6.713448   1.000000
    2       -5.143781   1.000000
    3       -4.931590   1.000000
    4        1.193339   1.000000
    5        1.240751   1.000000
    6        2.482266   1.000000
    7        2.516136   1.000000
    8        2.955931   1.000000
    9        3.104238   1.000000
   10        8.061658   0.000000
   11        8.273631   0.000000
   12        8.630072   0.000000
   13       10.203205   0.000000
   14       11.231618   0.000000

  0.3678134E+00  0.2643652E+00  0.0000000E+00  0.4761905E-02
    1       -6.720162   1.000000
    2       -5.162101   1.000000
    3       -4.905602   1.000000
    4        1.179052   1.000000
    5        1.240892   1.000000
    6        2.452097   1.000000
    7        2.496335   1.000000
    8        3.024958   1.000000
    9        3.150487   1.000000
   10        7.994415   0.000000
   11        8.227969   0.000000
   12        8.659482   0.000000
   13       10.122185   0.000000
   14       11.265477   0.000000

  0.3735607E+00  0.2528710E+00  0.0000000E+00  0.4761905E-02
    1       -6.727587   1.000000
    2       -5.179990   1.000000
    3       -4.879159   1.000000
    4        1.163515   1.000000
    5        1.241106   1.000000
    6        2.422708   1.000000
    7        2.475894   1.000000
    8        3.096969   1.000000
    9        3.203512   1.000000
   10        7.921782   0.000000
   11        8.172614   0.000000
   12        8.690863   0.000000
   13       10.034951   0.000000
   14       11.310879   0.000000

  0.3793079E+00  0.2413769E+00  0.0000000E+00  0.4761905E-02
    1       -6.735580   1.000000
    2       -5.197397   1.000000
    3       -4.852458   1.000000
    4        1.147027   1.000000
    5        1.241506   1.000000
    6        2.394239   1.000000
    7        2.455142   1.000000
    8        3.171556   1.000000
    9        3.262607   1.000000
   10        7.844486   0.000000
   11        8.109042   0.000000
   12        8.723031   0.000000
   13        9.943891   0.000000
   14       11.365251   0.000000

  0.3850552E+00  0.2298828E+00  0.0000000E+00  0.4761905E-02
    1       -6.744002   1.000000
    2       -5.214281   1.000000
    3       -4.825699   1.000000
    4        1.129872   1.000000
    5        1.242183   1.000000
    6        2.366776   1.000000
    7        2.434364   1.000000
    8        3.248369   1.000000
    9        3.327105   1.000000
   10        7.763276   0.000000
   11        8.038362   0.000000
   12        8.755234   0.000000
   13        9.850719   0.000000
   14       11.426710   0.000000

  0.3908024E+00  0.2183886E+00  0.0000000E+00  0.4761905E-02
    1       -6.752728   1.000000
    2       -5.230600   1.000000
    3       -4.799068   1.000000
    4        1.112312   1.000000
    5        1.243203   1.000000
    6        2.340370   1.000000
    7        2.413799   1.000000
    8        3.327084   1.000000
    9        3.396391   1.000000
   10        7.678896   0.000000
   11        7.961468   0.000000
   12        8.786984   0.000000
   13        9.756668   0.000000
   14       11.493876   0.000000

  0.3965497E+00  0.2068945E+00  0.0000000E+00  0.4761905E-02
    1       -6.761636   1.000000
    2       -5.246314   1.000000
    3       -4.772745   1.000000
    4        1.094586   1.000000
    5        1.244615   1.000000
    6        2.315059   1.000000
    7        2.393642   1.000000
    8        3.407385   1.000000
    9        3.469899   1.000000
   10        7.592071   0.000000
   11        7.879147   0.000000
   12        8.817948   0.000000
   13        9.662667   0.000000
   14       11.565704   0.000000

  0.4022969E+00  0.1954003E+00  0.0000000E+00  0.4761905E-02
    1       -6.770613   1.000000
    2       -5.261387   1.000000
    3       -4.746899   1.000000
    4        1.076907   1.000000
    5        1.246442   1.000000
    6        2.290873   1.000000
    7        2.374053   1.000000
    8        3.488954   1.000000
    9        3.547100   1.000000
   10        7.503500   0.000000
   11        7.792123   0.000000
   12        8.847891   0.000000
   13        9.569454   0.000000
   14       11.641373   0.000000

  0.4080441E+00  0.1839062E+00  0.0000000E+00  0.4761905E-02
    1       -6.779557   1.000000
    2       -5.275781   1.000000
    3       -4.721690   1.000000
    4        1.059467   1.000000
    5        1.248692   1.000000
    6        2.267838   1.000000
    7        2.355161   1.000000
    8        3.571465   1.000000
    9        3.627497   1.000000
   10        7.413849   0.000000
   11        7.701096   0.000000
   12        8.876636   0.000000
   13        9.477656   0.000000
   14       11.720205   0.000000

  0.4137914E+00  0.1724121E+00  0.0000000E+00  0.4761905E-02
    1       -6.788378   1.000000
    2       -5.289465   1.000000
    3       -4.697279   1.000000
    4        1.042434   1.000000
    5        1.251349   1.000000
    6        2.245976   1.000000
    7        2.337074   1.000000
    8        3.654571   1.000000
    9        3.710602   1.000000
   10        7.323744   0.000000
   11        7.606746   0.000000
   12        8.904050   0.000000
   13        9.387833   0.000000
   14       11.801598   0.000000

  0.4195386E+00  0.1609179E+00  0.0000000E+00  0.4761905E-02
    1       -6.796987   1.000000
    2       -5.302406   1.000000
    3       -4.673799   1.000000
    4        1.025958   1.000000
    5        1.254385   1.000000
    6        2.225308   1.000000
    7        2.319878   1.000000
    8        3.737899   1.000000
    9        3.795930   1.000000
   10        7.233791   0.000000
   11        7.509768   0.000000
   12        8.930028   0.000000
   13        9.300525   0.000000
   14       11.884991   0.000000

  0.4252859E+00  0.1494238E+00  0.0000000E+00  0.4761905E-02
    1       -6.805307   1.000000
    2       -5.314578   1.000000
    3       -4.651381   1.000000
    4        1.010166   1.000000
    5        1.257755   1.000000
    6        2.205860   1.000000
    7        2.303644   1.000000
    8        3.821037   1.000000
    9        3.882977   1.000000
   10        7.144576   0.000000
   11        7.410871   0.000000
   12        8.954481   0.000000
   13        9.216246   0.000000
   14       11.969829   0.000000

  0.4310331E+00  0.1379297E+00  0.0000000E+00  0.4761905E-02
    1       -6.813268   1.000000
    2       -5.325951   1.000000
    3       -4.630145   1.000000
    4        0.995174   1.000000
    5        1.261400   1.000000
    6        2.187664   1.000000
    7        2.288434   1.000000
    8        3.903525   1.000000
    9        3.971207   1.000000
   10        7.056680   0.000000
   11        7.310796   0.000000
   12        8.977339   0.000000
   13        9.135509   0.000000
   14       12.055534   0.000000

  0.4367803E+00  0.1264355E+00  0.0000000E+00  0.4761905E-02
    1       -6.820803   1.000000
    2       -5.336503   1.000000
    3       -4.610201   1.000000
    4        0.981078   1.000000
    5        1.265250   1.000000
    6        2.170745   1.000000
    7        2.274296   1.000000
    8        3.984842   1.000000
    9        4.060027   1.000000
   10        6.970695   0.000000
   11        7.210329   0.000000
   12        8.998542   0.000000
   13        9.058820   0.000000
   14       12.141483   0.000000

  0.4425276E+00  0.1149414E+00  0.0000000E+00  0.4761905E-02
    1       -6.827860   1.000000
    2       -5.346211   1.000000
    3       -4.591652   1.000000
    4        0.967963   1.000000
    5        1.269220   1.000000
    6        2.155133   1.000000
    7        2.261273   1.000000
    8        4.064392   1.000000
    9        4.148759   1.000000
   10        6.887237   0.000000
   11        7.110325   0.000000
   12        8.986683   0.000000
   13        9.018033   0.000000
   14       12.226973   0.000000

  0.4482748E+00  0.1034472E+00  0.0000000E+00  0.4761905E-02
    1       -6.834386   1.000000
    2       -5.355055   1.000000
    3       -4.574592   1.000000
    4        0.955902   1.000000
    5        1.273220   1.000000
    6        2.140862   1.000000
    7        2.249400   1.000000
    8        4.141478   1.000000
    9        4.236608   1.000000
   10        6.806984   0.000000
   11        7.011751   0.000000
   12        8.919593   0.000000
   13        9.035775   0.000000
   14       12.311195   0.000000

  0.4540221E+00  0.9195310E-01  0.0000000E+00  0.4761905E-02
    1       -6.840340   1.000000
    2       -5.363018   1.000000
    3       -4.559105   1.000000
    4        0.944959   1.000000
    5        1.277157   1.000000
    6        2.127964   1.000000
    7        2.238707   1.000000
    8        4.215302   1.000000
    9        4.322630   1.000000
   10        6.730688   0.000000
   11        6.915709   0.000000
   12        8.858032   0.000000
   13        9.051734   0.000000
   14       12.393198   0.000000

  0.4597693E+00  0.8045897E-01  0.0000000E+00  0.4761905E-02
    1       -6.845681   1.000000
    2       -5.370082   1.000000
    3       -4.545264   1.000000
    4        0.935189   1.000000
    5        1.280931   1.000000
    6        2.116475   1.000000
    7        2.229220   1.000000
    8        4.284935   1.000000
    9        4.405677   1.000000
   10        6.659207   0.000000
   11        6.823490   0.000000
   12        8.802463   0.000000
   13        9.065879   0.000000
   14       12.471851   0.000000

  0.4655166E+00  0.6896483E-01  0.0000000E+00  0.4761905E-02
    1       -6.850377   1.000000
    2       -5.376234   1.000000
    3       -4.533136   1.000000
    4        0.926635   1.000000
    5        1.284446   1.000000
    6        2.106429   1.000000
    7        2.220958   1.000000
    8        4.349308   1.000000
    9        4.484341   1.000000
   10        6.593518   0.000000
   11        6.736626   0.000000
   12        8.753316   0.000000
   13        9.078180   0.000000
   14       12.545800   0.000000

  0.4712638E+00  0.5747069E-01  0.0000000E+00  0.4761905E-02
    1       -6.854397   1.000000
    2       -5.381460   1.000000
    3       -4.522781   1.000000
    4        0.919338   1.000000
    5        1.287605   1.000000
    6        2.097857   1.000000
    7        2.213940   1.000000
    8        4.407210   1.000000
    9        4.556908   1.000000
   10        6.534733   0.000000
   11        6.656944   0.000000
   12        8.710995   0.000000
   13        9.088620   0.000000
   14       12.613455   0.000000

  0.4770110E+00  0.4597655E-01  0.0000000E+00  0.4761905E-02
    1       -6.857719   1.000000
    2       -5.385750   1.000000
    3       -4.514249   1.000000
    4        0.913326   1.000000
    5        1.290323   1.000000
    6        2.090788   1.000000
    7        2.208180   1.000000
    8        4.457315   1.000000
    9        4.621328   1.000000
   10        6.484078   0.000000
   11        6.586582   0.000000
   12        8.675852   0.000000
   13        9.097185   0.000000
   14       12.672980   0.000000

  0.4827583E+00  0.3448241E-01  0.0000000E+00  0.4761905E-02
    1       -6.860323   1.000000
    2       -5.389095   1.000000
    3       -4.507574   1.000000
    4        0.908626   1.000000
    5        1.292523   1.000000
    6        2.085253   1.000000
    7        2.203689   1.000000
    8        4.498239   1.000000
    9        4.675258   1.000000
   10        6.442839   0.000000
   11        6.527955   0.000000
   12        8.648191   0.000000