 running on    2 total cores
 distrk:  each k-point on    2 cores,    1 groups
 distr:  one band on    1 cores,    2 groups
 using from now: INCAR     
 vasp.5.4.4.18Apr17-6-g9f103f2a35 (build May 21 2018 15:16:00) complex           
 POSCAR found type information on POSCAR  Te
 POSCAR found :  1 types and       3 ions
 scaLAPACK will be used
 LDA part: xc-table for Pade appr. of Perdew
 WARNING: stress and forces are not correct
 POSCAR, INCAR and KPOINTS ok, starting setup
 FFT: planning ...
 WAVECAR not read
 charge-density read from file: Te-a                                    
 entering main loop
       N       E                     dE             d eps       ncg     rms          rms(c)
DAV:   1     0.781151127834E+02    0.78115E+02   -0.64628E+03  5880   0.990E+02
DAV:   2    -0.261322318041E+01   -0.80728E+02   -0.77241E+02  7986   0.145E+02
DAV:   3    -0.775460993144E+01   -0.51414E+01   -0.50988E+01  6900   0.415E+01
DAV:   4    -0.785005931335E+01   -0.95449E-01   -0.95380E-01  7998   0.680E+00
DAV:   5    -0.785167452492E+01   -0.16152E-02   -0.16152E-02  7358   0.798E-01
DAV:   6    -0.785175304722E+01   -0.78522E-04   -0.78523E-04  8740   0.129E-01
DAV:   7    -0.785175356163E+01   -0.51441E-06   -0.51444E-06  7412   0.874E-03
DAV:   8    -0.785175358431E+01   -0.22682E-07   -0.22691E-07  7554   0.127E-03
DAV:   9    -0.785175358491E+01   -0.60390E-09   -0.58774E-09  5426   0.201E-04
   1 F= -.78517536E+01 E0= -.78517453E+01  d E =-.165606E-04
