 vasp.5.4.4.18Apr17-6-g9f103f2a35 (build May 21 2018 15:16:00) complex           
 executed on GUN_wannier90_optcel date 2019.03.24  22:40:47
 running on    2 total cores
 distrk:  each k-point on    2 cores,    1 groups
 distr:  one band on NCORES_PER_BAND=   1 cores,    2 groups


--------------------------------------------------------------------------------------------------------


 INCAR:
 POTCAR:    PAW_PBE Te 08Apr2002                  
 POTCAR:    PAW_PBE Te 08Apr2002                  
  local pseudopotential read in
  partial core-charges read in
  partial kinetic energy density read in
  atomic valenz-charges read in
  non local Contribution for L=           0  read in
    real space projection operators read in
  non local Contribution for L=           0  read in
    real space projection operators read in
  non local Contribution for L=           1  read in
    real space projection operators read in
  non local Contribution for L=           1  read in
    real space projection operators read in
  non local Contribution for L=           2  read in
    real space projection operators read in
    PAW grid and wavefunctions read in

   number of l-projection  operators is LMAX  =           5
   number of lm-projection operators is LMMAX =          13

  PAW_PBE Te 08Apr2002                  :
 energy of atom  1       EATOM= -223.2721
 kinetic energy error for atom=    0.0007 (will be added to EATOM!!)


 POSCAR: Te                                      
  positions in direct lattice
  velocities in cartesian coordinates
 exchange correlation table for  LEXCH =        8
   RHO(1)=    0.500       N(1)  =     2000
   RHO(2)=  100.500       N(2)  =     4000



--------------------------------------------------------------------------------------------------------


 ion  position               nearest neighbor table
   1  0.269  0.000  0.167-   3 2.89   2 2.89   3 3.51   3 3.51   2 3.51   2 3.51
   2  0.000  0.269  0.833-   3 2.89   1 2.89   3 3.51   3 3.51   1 3.51   1 3.51
   3  0.731  0.731  0.500-   1 2.89   2 2.89   1 3.51   2 3.51   1 3.51   2 3.51


IMPORTANT INFORMATION: All symmetrisations will be switched off!
NOSYMM: (Re-)initialisation of all symmetry stuff for point group C_1.



 KPOINTS: K-point                                 
  interpolating k-points between supplied coordinates
  k-points in reciprocal lattice
Space group operators:
 irot       det(A)        alpha          n_x          n_y          n_z        tau_x        tau_y        tau_z
    1     1.000000     0.000000     1.000000     0.000000     0.000000     0.000000     0.000000     0.000000


--------------------------------------------------------------------------------------------------------




 Dimension of arrays:
   k-points           NKPTS =    210   k-points in BZ     NKDIM =    210   number of bands    NBANDS=     14
   number of dos      NEDOS =   3000   number of ions     NIONS =      3
   non local maximal  LDIM  =      5   non local SUM 2l+1 LMDIM =     13
   total plane-waves  NPLWV =  62208
   max r-space proj   IRMAX =      1   max aug-charges    IRDMAX=  34567
   dimension x,y,z NGX =    36 NGY =   36 NGZ =   48
   dimension x,y,z NGXF=    72 NGYF=   72 NGZF=   96
   support grid    NGXF=    72 NGYF=   72 NGZF=   96
   ions per type =               3
   NGX,Y,Z   is equivalent  to a cutoff of  13.24, 13.24, 13.40 a.u.
   NGXF,Y,Z  is equivalent  to a cutoff of  26.49, 26.49, 26.81 a.u.

 SYSTEM =  Te-a                                    
 POSCAR =  Te                                      

 Startparameter for this run:
   NWRITE =      1    write-flag & timer
   PREC   = a         normal or accurate (medium, high low for compatibility)
   ISTART =      0    job   : 0-new  1-cont  2-samecut
   ICHARG =     11    charge: 1-file 2-atom 10-const
   ISPIN  =      1    spin polarized calculation?
   LNONCOLLINEAR =      F non collinear calculations
   LSORBIT =      F    spin-orbit coupling
   INIWAV =      1    electr: 0-lowe 1-rand  2-diag
   LASPH  =      T    aspherical Exc in radial PAW
   METAGGA=      F    non-selfconsistent MetaGGA calc.

 Electronic Relaxation 1
   ENCUT  =  500.0 eV  36.75 Ry    6.06 a.u.   8.24  8.24 10.85*2*pi/ulx,y,z
   ENINI  =  500.0     initial cutoff
   ENAUG  =  368.8 eV  augmentation charge cutoff
   NELM   =   2000;   NELMIN=  5; NELMDL= -5     # of ELM steps 
   EDIFF  = 0.1E-07   stopping-criterion for ELM
   LREAL  =      F    real-space projection
   NLSPLINE    = F    spline interpolate recip. space projectors
   LCOMPAT=      F    compatible to vasp.4.4
   GGA_COMPAT  = F    GGA compatible to vasp.4.4-vasp.4.6
   LMAXPAW     = -100 max onsite density
   LMAXMIX     =    2 max onsite mixed and CHGCAR
   VOSKOWN=      0    Vosko Wilk Nusair interpolation
   ROPT   =    0.00000
 Ionic relaxation
   EDIFFG = -.1E-02   stopping-criterion for IOM
   NSW    =      0    number of steps for IOM
   NBLOCK =      1;   KBLOCK =      1    inner block; outer block 
   IBRION =     -1    ionic relax: 0-MD 1-quasi-New 2-CG
   NFREE  =      0    steps in history (QN), initial steepest desc. (CG)
   ISIF   =      2    stress and relaxation
   IWAVPR =     10    prediction:  0-non 1-charg 2-wave 3-comb
   ISYM   =     -1    0-nonsym 1-usesym 2-fastsym
   LCORR  =      T    Harris-Foulkes like correction to forces

   POTIM  = 0.5000    time-step for ionic-motion
   TEIN   =    0.0    initial temperature
   TEBEG  =    0.0;   TEEND  =   0.0 temperature during run
   SMASS  =  -3.00    Nose mass-parameter (am)
   estimated Nose-frequenzy (Omega)   =  0.10E-29 period in steps =****** mass=  -0.467E-27a.u.
   SCALEE = 1.0000    scale energy and forces
   NPACO  =    256;   APACO  = 16.0  distance and # of slots for P.C.
   PSTRESS=    0.0 pullay stress

  Mass of Ions in am
   POMASS = 127.60
  Ionic Valenz
   ZVAL   =   6.00
  Atomic Wigner-Seitz radii
   RWIGS  =  -1.00
  virtual crystal weights 
   VCA    =   1.00
   NELECT =      18.0000    total number of electrons
   NUPDOWN=      -1.0000    fix difference up-down

 DOS related values:
   EMIN   = -15.00;   EMAX   = 15.00  energy-range for DOS
   EFERMI =   0.00
   ISMEAR =     0;   SIGMA  =   0.05  broadening in eV -4-tet -1-fermi 0-gaus

 Electronic relaxation 2 (details)
   IALGO  =     38    algorithm
   LDIAG  =      T    sub-space diagonalisation (order eigenvalues)
   LSUBROT=      F    optimize rotation matrix (better conditioning)
   TURBO    =      0    0=normal 1=particle mesh
   IRESTART =      0    0=no restart 2=restart with 2 vectors
   NREBOOT  =      0    no. of reboots
   NMIN     =      0    reboot dimension
   EREF     =   0.00    reference energy to select bands
   IMIX   =      4    mixing-type and parameters
     AMIX     =   0.40;   BMIX     =  1.00
     AMIX_MAG =   1.60;   BMIX_MAG =  1.00
     AMIN     =   0.10
     WC   =   100.;   INIMIX=   1;  MIXPRE=   1;  MAXMIX= -45

 Intra band minimization:
   WEIMIN = 0.0000     energy-eigenvalue tresh-hold
   EBREAK =  0.18E-09  absolut break condition
   DEPER  =   0.30     relativ break condition  

   TIME   =   0.40     timestep for ELM

  volume/ion in A,a.u.               =      35.09       236.79
  Fermi-wavevector in a.u.,A,eV,Ry     =   0.908657  1.717114 11.233763  0.825658
  Thomas-Fermi vector in A             =   2.032610

 Write flags
   LWAVE        =      F    write WAVECAR
   LDOWNSAMPLE  =      F    k-point downsampling of WAVECAR
   LCHARG       =      F    write CHGCAR
   LVTOT        =      F    write LOCPOT, total local potential
   LVHAR        =      F    write LOCPOT, Hartree potential only
   LELF         =      F    write electronic localiz. function (ELF)
   LORBIT       =     11    0 simple, 1 ext, 2 COOP (PROOUT), +10 PAW based schemes


 Dipole corrections
   LMONO  =      F    monopole corrections only (constant potential shift)
   LDIPOL =      F    correct potential (dipole corrections)
   IDIPOL =      0    1-x, 2-y, 3-z, 4-all directions 
   EPSILON=  1.0000000 bulk dielectric constant

 Exchange correlation treatment:
   GGA     =    --    GGA type
   LEXCH   =     8    internal setting for exchange type
   VOSKOWN=      0    Vosko Wilk Nusair interpolation
   LHFCALC =     F    Hartree Fock is set to
   LHFONE  =     F    Hartree Fock one center treatment
   AEXX    =    0.0000 exact exchange contribution

 Linear response parameters
   LEPSILON=     F    determine dielectric tensor
   LRPA    =     F    only Hartree local field effects (RPA)
   LNABLA  =     F    use nabla operator in PAW spheres
   LVEL    =     F    velocity operator in full k-point grid
   LINTERFAST=   F  fast interpolation
   KINTER  =     0    interpolate to denser k-point grid
   CSHIFT  =0.1000    complex shift for real part using Kramers Kronig
   OMEGAMAX=  -1.0    maximum frequency
   DEG_THRESHOLD= 0.2000000E-02 threshold for treating states as degnerate
   RTIME   =   -0.100 relaxation time in fs
  (WPLASMAI=    0.000 imaginary part of plasma frequency in eV, 0.658/RTIME)
   DFIELD  = 0.0000000 0.0000000 0.0000000 field for delta impulse in time

 Orbital magnetization related:
   ORBITALMAG=     F  switch on orbital magnetization
   LCHIMAG   =     F  perturbation theory with respect to B field
   DQ        =  0.001000  dq finite difference perturbation B field
   LLRAUG    =     F  two centre corrections for induced B field



--------------------------------------------------------------------------------------------------------


 Static calculation
 charge density and potential remain constant during run
 non-spin polarized calculation
 Variant of blocked Davidson
 Davidson routine will perform the subspace rotation
 perform sub-space diagonalisation
    after iterative eigenvector-optimisation
 no mixing
 using additional bands            5
 reciprocal scheme for non local part
 use partial core corrections
 calculate Harris-corrections to forces   (improved forces if not selfconsistent)
 use gradient corrections 
 WARNING: stress and forces are not correct
  (second derivative of E(xc) not defined)
 use of overlap-Matrix (Vanderbilt PP)
 Gauss-broadening in eV      SIGMA  =   0.05


--------------------------------------------------------------------------------------------------------


  energy-cutoff  :      500.00
  volume of cell :      105.27
      direct lattice vectors                 reciprocal lattice vectors
     2.259320305 -3.913257559 -0.000000000     0.221305496 -0.127770788  0.000000000
     2.259320305  3.913257559  0.000000000     0.221305496  0.127770788  0.000000000
    -0.000000000  0.000000000  5.953196681     0.000000000 -0.000000000  0.167976980

  length of vectors
     4.518640610  4.518640610  5.953196681     0.255541575  0.255541575  0.167976980



 k-points in units of 2pi/SCALE and weight: K-point                                 
   0.00000000  0.00000000  0.00000000       0.005
   0.00508743  0.00000000  0.00000000       0.005
   0.01017486  0.00000000  0.00000000       0.005
   0.01526230  0.00000000  0.00000000       0.005
   0.02034973  0.00000000  0.00000000       0.005
   0.02543716  0.00000000  0.00000000       0.005
   0.03052459  0.00000000  0.00000000       0.005
   0.03561202  0.00000000  0.00000000       0.005
   0.04069945  0.00000000  0.00000000       0.005
   0.04578689  0.00000000  0.00000000       0.005
   0.05087432  0.00000000  0.00000000       0.005
   0.05596175  0.00000000  0.00000000       0.005
   0.06104918  0.00000000  0.00000000       0.005
   0.06613661  0.00000000  0.00000000       0.005
   0.07122404  0.00000000  0.00000000       0.005
   0.07631148  0.00000000  0.00000000       0.005
   0.08139891  0.00000000  0.00000000       0.005
   0.08648634  0.00000000  0.00000000       0.005
   0.09157377  0.00000000  0.00000000       0.005
   0.09666120  0.00000000  0.00000000       0.005
   0.10174864  0.00000000  0.00000000       0.005
   0.10683607  0.00000000  0.00000000       0.005
   0.11192350  0.00000000  0.00000000       0.005
   0.11701093  0.00000000  0.00000000       0.005
   0.12209836  0.00000000  0.00000000       0.005
   0.12718579  0.00000000  0.00000000       0.005
   0.13227323  0.00000000  0.00000000       0.005
   0.13736066  0.00000000  0.00000000       0.005
   0.14244809  0.00000000  0.00000000       0.005
   0.14753552  0.00000000  0.00000000       0.005
   0.14753552  0.00000000  0.00000000       0.005
   0.14626370 -0.00220294  0.00000000       0.005
   0.14499188 -0.00440589  0.00000000       0.005
   0.14372006 -0.00660883  0.00000000       0.005
   0.14244824 -0.00881178  0.00000000       0.005
   0.14117642 -0.01101472  0.00000000       0.005
   0.13990460 -0.01321767  0.00000000       0.005
   0.13863278 -0.01542061  0.00000000       0.005
   0.13736096 -0.01762356  0.00000000       0.005
   0.13608914 -0.01982650  0.00000000       0.005
   0.13481732 -0.02202945  0.00000000       0.005
   0.13354550 -0.02423239  0.00000000       0.005
   0.13227368 -0.02643534  0.00000000       0.005
   0.13100186 -0.02863828  0.00000000       0.005
   0.12973004 -0.03084122  0.00000000       0.005
   0.12845822 -0.03304417  0.00000000       0.005
   0.12718641 -0.03524711  0.00000000       0.005
   0.12591459 -0.03745006  0.00000000       0.005
   0.12464277 -0.03965300  0.00000000       0.005
   0.12337095 -0.04185595  0.00000000       0.005
   0.12209913 -0.04405889  0.00000000       0.005
   0.12082731 -0.04626184  0.00000000       0.005
   0.11955549 -0.04846478  0.00000000       0.005
   0.11828367 -0.05066773  0.00000000       0.005
   0.11701185 -0.05287067  0.00000000       0.005
   0.11574003 -0.05507362  0.00000000       0.005
   0.11446821 -0.05727656  0.00000000       0.005
   0.11319639 -0.05947950  0.00000000       0.005
   0.11192457 -0.06168245  0.00000000       0.005
   0.11065275 -0.06388539  0.00000000       0.005
   0.11065275 -0.06388539  0.00000000       0.005
   0.10683714 -0.06168245  0.00000000       0.005
   0.10302152 -0.05947950  0.00000000       0.005
   0.09920591 -0.05727656  0.00000000       0.005
   0.09539030 -0.05507362  0.00000000       0.005
   0.09157469 -0.05287067  0.00000000       0.005
   0.08775908 -0.05066773  0.00000000       0.005
   0.08394346 -0.04846478  0.00000000       0.005
   0.08012785 -0.04626184  0.00000000       0.005
   0.07631224 -0.04405889  0.00000000       0.005
   0.07249663 -0.04185595  0.00000000       0.005
   0.06868102 -0.03965300  0.00000000       0.005
   0.06486540 -0.03745006  0.00000000       0.005
   0.06104979 -0.03524711  0.00000000       0.005
   0.05723418 -0.03304417  0.00000000       0.005
   0.05341857 -0.03084122  0.00000000       0.005
   0.04960296 -0.02863828  0.00000000       0.005
   0.04578734 -0.02643534  0.00000000       0.005
   0.04197173 -0.02423239  0.00000000       0.005
   0.03815612 -0.02202945  0.00000000       0.005
   0.03434051 -0.01982650  0.00000000       0.005
   0.03052490 -0.01762356  0.00000000       0.005
   0.02670928 -0.01542061  0.00000000       0.005
   0.02289367 -0.01321767  0.00000000       0.005
   0.01907806 -0.01101472  0.00000000       0.005
   0.01526245 -0.00881178  0.00000000       0.005
   0.01144684 -0.00660883  0.00000000       0.005
   0.00763122 -0.00440589  0.00000000       0.005
   0.00381561 -0.00220294  0.00000000       0.005
   0.00000000  0.00000000  0.00000000       0.005
   0.00000000  0.00000000  0.00000000       0.005
   0.00000000  0.00000000  0.00289615       0.005
   0.00000000  0.00000000  0.00579231       0.005
   0.00000000  0.00000000  0.00868846       0.005
   0.00000000  0.00000000  0.01158462       0.005
   0.00000000  0.00000000  0.01448077       0.005
   0.00000000  0.00000000  0.01737693       0.005
   0.00000000  0.00000000  0.02027308       0.005
   0.00000000  0.00000000  0.02316924       0.005
   0.00000000  0.00000000  0.02606539       0.005
   0.00000000  0.00000000  0.02896155       0.005
   0.00000000  0.00000000  0.03185770       0.005
   0.00000000  0.00000000  0.03475386       0.005
   0.00000000  0.00000000  0.03765001       0.005
   0.00000000  0.00000000  0.04054617       0.005
   0.00000000  0.00000000  0.04344232       0.005
   0.00000000  0.00000000  0.04633848       0.005
   0.00000000  0.00000000  0.04923463       0.005
   0.00000000  0.00000000  0.05213079       0.005
   0.00000000  0.00000000  0.05502694       0.005
   0.00000000  0.00000000  0.05792310       0.005
   0.00000000  0.00000000  0.06081925       0.005
   0.00000000  0.00000000  0.06371541       0.005
   0.00000000  0.00000000  0.06661156       0.005
   0.00000000  0.00000000  0.06950772       0.005
   0.00000000  0.00000000  0.07240387       0.005
   0.00000000  0.00000000  0.07530003       0.005
   0.00000000  0.00000000  0.07819618       0.005
   0.00000000  0.00000000  0.08109234       0.005
   0.00000000  0.00000000  0.08398849       0.005
   0.00000000  0.00000000  0.08398849       0.005
   0.00508743  0.00000000  0.08398849       0.005
   0.01017486  0.00000000  0.08398849       0.005
   0.01526230  0.00000000  0.08398849       0.005
   0.02034973  0.00000000  0.08398849       0.005
   0.02543716  0.00000000  0.08398849       0.005
   0.03052459  0.00000000  0.08398849       0.005
   0.03561202  0.00000000  0.08398849       0.005
   0.04069945  0.00000000  0.08398849       0.005
   0.04578689  0.00000000  0.08398849       0.005
   0.05087432  0.00000000  0.08398849       0.005
   0.05596175  0.00000000  0.08398849       0.005
   0.06104918  0.00000000  0.08398849       0.005
   0.06613661  0.00000000  0.08398849       0.005
   0.07122404  0.00000000  0.08398849       0.005
   0.07631148  0.00000000  0.08398849       0.005
   0.08139891  0.00000000  0.08398849       0.005
   0.08648634  0.00000000  0.08398849       0.005
   0.09157377  0.00000000  0.08398849       0.005
   0.09666120  0.00000000  0.08398849       0.005
   0.10174864  0.00000000  0.08398849       0.005
   0.10683607  0.00000000  0.08398849       0.005
   0.11192350  0.00000000  0.08398849       0.005
   0.11701093  0.00000000  0.08398849       0.005
   0.12209836  0.00000000  0.08398849       0.005
   0.12718579  0.00000000  0.08398849       0.005
   0.13227323  0.00000000  0.08398849       0.005
   0.13736066  0.00000000  0.08398849       0.005
   0.14244809  0.00000000  0.08398849       0.005
   0.14753552  0.00000000  0.08398849       0.005
   0.14753552  0.00000000  0.08398849       0.005
   0.14626370 -0.00220294  0.08398849       0.005
   0.14499188 -0.00440589  0.08398849       0.005
   0.14372006 -0.00660883  0.08398849       0.005
   0.14244824 -0.00881178  0.08398849       0.005
   0.14117642 -0.01101472  0.08398849       0.005
   0.13990460 -0.01321767  0.08398849       0.005
   0.13863278 -0.01542061  0.08398849       0.005
   0.13736096 -0.01762356  0.08398849       0.005
   0.13608914 -0.01982650  0.08398849       0.005
   0.13481732 -0.02202945  0.08398849       0.005
   0.13354550 -0.02423239  0.08398849       0.005
   0.13227368 -0.02643534  0.08398849       0.005
   0.13100186 -0.02863828  0.08398849       0.005
   0.12973004 -0.03084122  0.08398849       0.005
   0.12845822 -0.03304417  0.08398849       0.005
   0.12718641 -0.03524711  0.08398849       0.005
   0.12591459 -0.03745006  0.08398849       0.005
   0.12464277 -0.03965300  0.08398849       0.005
   0.12337095 -0.04185595  0.08398849       0.005
   0.12209913 -0.04405889  0.08398849       0.005
   0.12082731 -0.04626184  0.08398849       0.005
   0.11955549 -0.04846478  0.08398849       0.005
   0.11828367 -0.05066773  0.08398849       0.005
   0.11701185 -0.05287067  0.08398849       0.005
   0.11574003 -0.05507362  0.08398849       0.005
   0.11446821 -0.05727656  0.08398849       0.005
   0.11319639 -0.05947950  0.08398849       0.005
   0.11192457 -0.06168245  0.08398849       0.005
   0.11065275 -0.06388539  0.08398849       0.005
   0.11065275 -0.06388539  0.08398849       0.005
   0.10683714 -0.06168245  0.08398849       0.005
   0.10302152 -0.05947950  0.08398849       0.005
   0.09920591 -0.05727656  0.08398849       0.005
   0.09539030 -0.05507362  0.08398849       0.005
   0.09157469 -0.05287067  0.08398849       0.005
   0.08775908 -0.05066773  0.08398849       0.005
   0.08394346 -0.04846478  0.08398849       0.005
   0.08012785 -0.04626184  0.08398849       0.005
   0.07631224 -0.04405889  0.08398849       0.005
   0.07249663 -0.04185595  0.08398849       0.005
   0.06868102 -0.03965300  0.08398849       0.005
   0.06486540 -0.03745006  0.08398849       0.005
   0.06104979 -0.03524711  0.08398849       0.005
   0.05723418 -0.03304417  0.08398849       0.005
   0.05341857 -0.03084122  0.08398849       0.005
   0.04960296 -0.02863828  0.08398849       0.005
   0.04578734 -0.02643534  0.08398849       0.005
   0.04197173 -0.02423239  0.08398849       0.005
   0.03815612 -0.02202945  0.08398849       0.005
   0.03434051 -0.01982650  0.08398849       0.005
   0.03052490 -0.01762356  0.08398849       0.005
   0.02670928 -0.01542061  0.08398849       0.005
   0.02289367 -0.01321767  0.08398849       0.005
   0.01907806 -0.01101472  0.08398849       0.005
   0.01526245 -0.00881178  0.08398849       0.005
   0.01144684 -0.00660883  0.08398849       0.005
   0.00763122 -0.00440589  0.08398849       0.005
   0.00381561 -0.00220294  0.08398849       0.005
   0.00000000  0.00000000  0.08398849       0.005

 k-points in reciprocal lattice and weights: K-point                                 
   0.00000000  0.00000000  0.00000000       0.005
   0.01149414  0.01149414  0.00000000       0.005
   0.02298828  0.02298828  0.00000000       0.005
   0.03448241  0.03448241  0.00000000       0.005
   0.04597655  0.04597655  0.00000000       0.005
   0.05747069  0.05747069  0.00000000       0.005
   0.06896483  0.06896483  0.00000000       0.005
   0.08045897  0.08045897  0.00000000       0.005
   0.09195310  0.09195310  0.00000000       0.005
   0.10344724  0.10344724  0.00000000       0.005
   0.11494138  0.11494138  0.00000000       0.005
   0.12643552  0.12643552  0.00000000       0.005
   0.13792966  0.13792966  0.00000000       0.005
   0.14942379  0.14942379  0.00000000       0.005
   0.16091793  0.16091793  0.00000000       0.005
   0.17241207  0.17241207  0.00000000       0.005
   0.18390621  0.18390621  0.00000000       0.005
   0.19540034  0.19540034  0.00000000       0.005
   0.20689448  0.20689448  0.00000000       0.005
   0.21838862  0.21838862  0.00000000       0.005
   0.22988276  0.22988276  0.00000000       0.005
   0.24137690  0.24137690  0.00000000       0.005
   0.25287103  0.25287103  0.00000000       0.005
   0.26436517  0.26436517  0.00000000       0.005
   0.27585931  0.27585931  0.00000000       0.005
   0.28735345  0.28735345  0.00000000       0.005
   0.29884759  0.29884759  0.00000000       0.005
   0.31034172  0.31034172  0.00000000       0.005
   0.32183586  0.32183586  0.00000000       0.005
   0.33333000  0.33333000  0.00000000       0.005
   0.33333000  0.33333000  0.00000000       0.005
   0.33907724  0.32183586  0.00000000       0.005
   0.34482448  0.31034172  0.00000000       0.005
   0.35057172  0.29884759  0.00000000       0.005
   0.35631897  0.28735345  0.00000000       0.005
   0.36206621  0.27585931  0.00000000       0.005
   0.36781345  0.26436517  0.00000000       0.005
   0.37356069  0.25287103  0.00000000       0.005
   0.37930793  0.24137690  0.00000000       0.005
   0.38505517  0.22988276  0.00000000       0.005
   0.39080241  0.21838862  0.00000000       0.005
   0.39654966  0.20689448  0.00000000       0.005
   0.40229690  0.19540034  0.00000000       0.005
   0.40804414  0.18390621  0.00000000       0.005
   0.41379138  0.17241207  0.00000000       0.005
   0.41953862  0.16091793  0.00000000       0.005
   0.42528586  0.14942379  0.00000000       0.005
   0.43103310  0.13792966  0.00000000       0.005
   0.43678034  0.12643552  0.00000000       0.005
   0.44252759  0.11494138  0.00000000       0.005
   0.44827483  0.10344724  0.00000000       0.005
   0.45402207  0.09195310  0.00000000       0.005
   0.45976931  0.08045897  0.00000000       0.005
   0.46551655  0.06896483  0.00000000       0.005
   0.47126379  0.05747069  0.00000000       0.005
   0.47701103  0.04597655  0.00000000       0.005
   0.48275828  0.03448241  0.00000000       0.005
   0.48850552  0.02298828  0.00000000       0.005
   0.49425276  0.01149414  0.00000000       0.005
   0.50000000  0.00000000  0.00000000       0.005
   0.50000000  0.00000000  0.00000000       0.005
   0.48275862  0.00000000  0.00000000       0.005
   0.46551724  0.00000000  0.00000000       0.005
   0.44827586  0.00000000  0.00000000       0.005
   0.43103448  0.00000000  0.00000000       0.005
   0.41379310  0.00000000  0.00000000       0.005
   0.39655172  0.00000000  0.00000000       0.005
   0.37931034  0.00000000  0.00000000       0.005
   0.36206897  0.00000000  0.00000000       0.005
   0.34482759  0.00000000  0.00000000       0.005
   0.32758621  0.00000000  0.00000000       0.005
   0.31034483  0.00000000  0.00000000       0.005
   0.29310345  0.00000000  0.00000000       0.005
   0.27586207  0.00000000  0.00000000       0.005
   0.25862069  0.00000000  0.00000000       0.005
   0.24137931  0.00000000  0.00000000       0.005
   0.22413793  0.00000000  0.00000000       0.005
   0.20689655  0.00000000  0.00000000       0.005
   0.18965517  0.00000000  0.00000000       0.005
   0.17241379  0.00000000  0.00000000       0.005
   0.15517241  0.00000000  0.00000000       0.005
   0.13793103  0.00000000  0.00000000       0.005
   0.12068966  0.00000000  0.00000000       0.005
   0.10344828  0.00000000  0.00000000       0.005
   0.08620690  0.00000000  0.00000000       0.005
   0.06896552  0.00000000  0.00000000       0.005
   0.05172414  0.00000000  0.00000000       0.005
   0.03448276  0.00000000  0.00000000       0.005
   0.01724138  0.00000000  0.00000000       0.005
   0.00000000  0.00000000  0.00000000       0.005
   0.00000000  0.00000000  0.00000000       0.005
   0.00000000  0.00000000  0.01724138       0.005
   0.00000000  0.00000000  0.03448276       0.005
   0.00000000  0.00000000  0.05172414       0.005
   0.00000000  0.00000000  0.06896552       0.005
   0.00000000  0.00000000  0.08620690       0.005
   0.00000000  0.00000000  0.10344828       0.005
   0.00000000  0.00000000  0.12068966       0.005
   0.00000000  0.00000000  0.13793103       0.005
   0.00000000  0.00000000  0.15517241       0.005
   0.00000000  0.00000000  0.17241379       0.005
   0.00000000  0.00000000  0.18965517       0.005
   0.00000000  0.00000000  0.20689655       0.005
   0.00000000  0.00000000  0.22413793       0.005
   0.00000000  0.00000000  0.24137931       0.005
   0.00000000  0.00000000  0.25862069       0.005
   0.00000000  0.00000000  0.27586207       0.005
   0.00000000  0.00000000  0.29310345       0.005
   0.00000000  0.00000000  0.31034483       0.005
   0.00000000  0.00000000  0.32758621       0.005
   0.00000000  0.00000000  0.34482759       0.005
   0.00000000  0.00000000  0.36206897       0.005
   0.00000000  0.00000000  0.37931034       0.005
   0.00000000  0.00000000  0.39655172       0.005
   0.00000000  0.00000000  0.41379310       0.005
   0.00000000  0.00000000  0.43103448       0.005
   0.00000000  0.00000000  0.44827586       0.005
   0.00000000  0.00000000  0.46551724       0.005
   0.00000000  0.00000000  0.48275862       0.005
   0.00000000  0.00000000  0.50000000       0.005
   0.00000000  0.00000000  0.50000000       0.005
   0.01149414  0.01149414  0.50000000       0.005
   0.02298828  0.02298828  0.50000000       0.005
   0.03448241  0.03448241  0.50000000       0.005
   0.04597655  0.04597655  0.50000000       0.005
   0.05747069  0.05747069  0.50000000       0.005
   0.06896483  0.06896483  0.50000000       0.005
   0.08045897  0.08045897  0.50000000       0.005
   0.09195310  0.09195310  0.50000000       0.005
   0.10344724  0.10344724  0.50000000       0.005
   0.11494138  0.11494138  0.50000000       0.005
   0.12643552  0.12643552  0.50000000       0.005
   0.13792966  0.13792966  0.50000000       0.005
   0.14942379  0.14942379  0.50000000       0.005
   0.16091793  0.16091793  0.50000000       0.005
   0.17241207  0.17241207  0.50000000       0.005
   0.18390621  0.18390621  0.50000000       0.005
   0.19540034  0.19540034  0.50000000       0.005
   0.20689448  0.20689448  0.50000000       0.005
   0.21838862  0.21838862  0.50000000       0.005
   0.22988276  0.22988276  0.50000000       0.005
   0.24137690  0.24137690  0.50000000       0.005
   0.25287103  0.25287103  0.50000000       0.005
   0.26436517  0.26436517  0.50000000       0.005
   0.27585931  0.27585931  0.50000000       0.005
   0.28735345  0.28735345  0.50000000       0.005
   0.29884759  0.29884759  0.50000000       0.005
   0.31034172  0.31034172  0.50000000       0.005
   0.32183586  0.32183586  0.50000000       0.005
   0.33333000  0.33333000  0.50000000       0.005
   0.33333000  0.33333000  0.50000000       0.005
   0.33907724  0.32183586  0.50000000       0.005
   0.34482448  0.31034172  0.50000000       0.005
   0.35057172  0.29884759  0.50000000       0.005
   0.35631897  0.28735345  0.50000000       0.005
   0.36206621  0.27585931  0.50000000       0.005
   0.36781345  0.26436517  0.50000000       0.005
   0.37356069  0.25287103  0.50000000       0.005
   0.37930793  0.24137690  0.50000000       0.005
   0.38505517  0.22988276  0.50000000       0.005
   0.39080241  0.21838862  0.50000000       0.005
   0.39654966  0.20689448  0.50000000       0.005
   0.40229690  0.19540034  0.50000000       0.005
   0.40804414  0.18390621  0.50000000       0.005
   0.41379138  0.17241207  0.50000000       0.005
   0.41953862  0.16091793  0.50000000       0.005
   0.42528586  0.14942379  0.50000000       0.005
   0.43103310  0.13792966  0.50000000       0.005
   0.43678034  0.12643552  0.50000000       0.005
   0.44252759  0.11494138  0.50000000       0.005
   0.44827483  0.10344724  0.50000000       0.005
   0.45402207  0.09195310  0.50000000       0.005
   0.45976931  0.08045897  0.50000000       0.005
   0.46551655  0.06896483  0.50000000       0.005
   0.47126379  0.05747069  0.50000000       0.005
   0.47701103  0.04597655  0.50000000       0.005
   0.48275828  0.03448241  0.50000000       0.005
   0.48850552  0.02298828  0.50000000       0.005
   0.49425276  0.01149414  0.50000000       0.005
   0.50000000  0.00000000  0.50000000       0.005
   0.50000000  0.00000000  0.50000000       0.005
   0.48275862  0.00000000  0.50000000       0.005
   0.46551724  0.00000000  0.50000000       0.005
   0.44827586  0.00000000  0.50000000       0.005
   0.43103448  0.00000000  0.50000000       0.005
   0.41379310  0.00000000  0.50000000       0.005
   0.39655172  0.00000000  0.50000000       0.005
   0.37931034  0.00000000  0.50000000       0.005
   0.36206897  0.00000000  0.50000000       0.005
   0.34482759  0.00000000  0.50000000       0.005
   0.32758621  0.00000000  0.50000000       0.005
   0.31034483  0.00000000  0.50000000       0.005
   0.29310345  0.00000000  0.50000000       0.005
   0.27586207  0.00000000  0.50000000       0.005
   0.25862069  0.00000000  0.50000000       0.005
   0.24137931  0.00000000  0.50000000       0.005
   0.22413793  0.00000000  0.50000000       0.005
   0.20689655  0.00000000  0.50000000       0.005
   0.18965517  0.00000000  0.50000000       0.005
   0.17241379  0.00000000  0.50000000       0.005
   0.15517241  0.00000000  0.50000000       0.005
   0.13793103  0.00000000  0.50000000       0.005
   0.12068966  0.00000000  0.50000000       0.005
   0.10344828  0.00000000  0.50000000       0.005
   0.08620690  0.00000000  0.50000000       0.005
   0.06896552  0.00000000  0.50000000       0.005
   0.05172414  0.00000000  0.50000000       0.005
   0.03448276  0.00000000  0.50000000       0.005
   0.01724138  0.00000000  0.50000000       0.005
   0.00000000  0.00000000  0.50000000       0.005

 position of ions in fractional coordinates (direct lattice) 
   0.26862376  0.00000000  0.16666667
   0.00000000  0.26862376  0.83333333
   0.73137624  0.73137624  0.50000000

 position of ions in cartesian coordinates  (Angst):
   0.60690712 -1.05119396  0.99219945
   0.60690712  1.05119396  4.96099723
   3.30482638  0.00000000  2.97659834



--------------------------------------------------------------------------------------------------------


 k-point  1 :   0.0000 0.0000 0.0000  plane waves:    2691
 k-point  2 :   0.0115 0.0115 0.0000  plane waves:    2687
 k-point  3 :   0.0230 0.0230 0.0000  plane waves:    2679
 k-point  4 :   0.0345 0.0345 0.0000  plane waves:    2679
 k-point  5 :   0.0460 0.0460 0.0000  plane waves:    2687
 k-point  6 :   0.0575 0.0575 0.0000  plane waves:    2673
 k-point  7 :   0.0690 0.0690 0.0000  plane waves:    2675
 k-point  8 :   0.0805 0.0805 0.0000  plane waves:    2669
 k-point  9 :   0.0920 0.0920 0.0000  plane waves:    2683
 k-point 10 :   0.1034 0.1034 0.0000  plane waves:    2673
 k-point 11 :   0.1149 0.1149 0.0000  plane waves:    2669
 k-point 12 :   0.1264 0.1264 0.0000  plane waves:    2674
 k-point 13 :   0.1379 0.1379 0.0000  plane waves:    2678
 k-point 14 :   0.1494 0.1494 0.0000  plane waves:    2672
 k-point 15 :   0.1609 0.1609 0.0000  plane waves:    2672
 k-point 16 :   0.1724 0.1724 0.0000  plane waves:    2678
 k-point 17 :   0.1839 0.1839 0.0000  plane waves:    2678
 k-point 18 :   0.1954 0.1954 0.0000  plane waves:    2670
 k-point 19 :   0.2069 0.2069 0.0000  plane waves:    2670
 k-point 20 :   0.2184 0.2184 0.0000  plane waves:    2680
 k-point 21 :   0.2299 0.2299 0.0000  plane waves:    2670
 k-point 22 :   0.2414 0.2414 0.0000  plane waves:    2666
 k-point 23 :   0.2529 0.2529 0.0000  plane waves:    2662
 k-point 24 :   0.2644 0.2644 0.0000  plane waves:    2660
 k-point 25 :   0.2759 0.2759 0.0000  plane waves:    2652
 k-point 26 :   0.2874 0.2874 0.0000  plane waves:    2652
 k-point 27 :   0.2988 0.2988 0.0000  plane waves:    2648
 k-point 28 :   0.3103 0.3103 0.0000  plane waves:    2652
 k-point 29 :   0.3218 0.3218 0.0000  plane waves:    2640
 k-point 30 :   0.3333 0.3333 0.0000  plane waves:    2640
 k-point 31 :   0.3333 0.3333 0.0000  plane waves:    2640
 k-point 32 :   0.3391 0.3218 0.0000  plane waves:    2640
 k-point 33 :   0.3448 0.3103 0.0000  plane waves:    2642
 k-point 34 :   0.3506 0.2988 0.0000  plane waves:    2646
 k-point 35 :   0.3563 0.2874 0.0000  plane waves:    2646
 k-point 36 :   0.3621 0.2759 0.0000  plane waves:    2648
 k-point 37 :   0.3678 0.2644 0.0000  plane waves:    2652
 k-point 38 :   0.3736 0.2529 0.0000  plane waves:    2660
 k-point 39 :   0.3793 0.2414 0.0000  plane waves:    2660
 k-point 40 :   0.3851 0.2299 0.0000  plane waves:    2656
 k-point 41 :   0.3908 0.2184 0.0000  plane waves:    2660
 k-point 42 :   0.3965 0.2069 0.0000  plane waves:    2670
 k-point 43 :   0.4023 0.1954 0.0000  plane waves:    2672
 k-point 44 :   0.4080 0.1839 0.0000  plane waves:    2672
 k-point 45 :   0.4138 0.1724 0.0000  plane waves:    2674
 k-point 46 :   0.4195 0.1609 0.0000  plane waves:    2666
 k-point 47 :   0.4253 0.1494 0.0000  plane waves:    2666
 k-point 48 :   0.4310 0.1379 0.0000  plane waves:    2666
 k-point 49 :   0.4368 0.1264 0.0000  plane waves:    2664
 k-point 50 :   0.4425 0.1149 0.0000  plane waves:    2668
 k-point 51 :   0.4483 0.1034 0.0000  plane waves:    2668
 k-point 52 :   0.4540 0.0920 0.0000  plane waves:    2672
 k-point 53 :   0.4598 0.0805 0.0000  plane waves:    2668
 k-point 54 :   0.4655 0.0690 0.0000  plane waves:    2676
 k-point 55 :   0.4713 0.0575 0.0000  plane waves:    2676
 k-point 56 :   0.4770 0.0460 0.0000  plane waves:    2682
 k-point 57 :   0.4828 0.0345 0.0000  plane waves:    2682
 k-point 58 :   0.4885 0.0230 0.0000  plane waves:    2686
 k-point 59 :   0.4943 0.0115 0.0000  plane waves:    2686
 k-point 60 :   0.5000 0.0000 0.0000  plane waves:    2690
 k-point 61 :   0.5000 0.0000 0.0000  plane waves:    2690
 k-point 62 :   0.4828 0.0000 0.0000  plane waves:    2686
 k-point 63 :   0.4655 0.0000 0.0000  plane waves:    2686
 k-point 64 :   0.4483 0.0000 0.0000  plane waves:    2688
 k-point 65 :   0.4310 0.0000 0.0000  plane waves:    2684
 k-point 66 :   0.4138 0.0000 0.0000  plane waves:    2674
 k-point 67 :   0.3966 0.0000 0.0000  plane waves:    2670
 k-point 68 :   0.3793 0.0000 0.0000  plane waves:    2674
 k-point 69 :   0.3621 0.0000 0.0000  plane waves:    2664
 k-point 70 :   0.3448 0.0000 0.0000  plane waves:    2664
 k-point 71 :   0.3276 0.0000 0.0000  plane waves:    2666
 k-point 72 :   0.3103 0.0000 0.0000  plane waves:    2662
 k-point 73 :   0.2931 0.0000 0.0000  plane waves:    2668
 k-point 74 :   0.2759 0.0000 0.0000  plane waves:    2664
 k-point 75 :   0.2586 0.0000 0.0000  plane waves:    2670
 k-point 76 :   0.2414 0.0000 0.0000  plane waves:    2674
 k-point 77 :   0.2241 0.0000 0.0000  plane waves:    2670
 k-point 78 :   0.2069 0.0000 0.0000  plane waves:    2674
 k-point 79 :   0.1897 0.0000 0.0000  plane waves:    2682
 k-point 80 :   0.1724 0.0000 0.0000  plane waves:    2672
 k-point 81 :   0.1552 0.0000 0.0000  plane waves:    2678
 k-point 82 :   0.1379 0.0000 0.0000  plane waves:    2666
 k-point 83 :   0.1207 0.0000 0.0000  plane waves:    2683
 k-point 84 :   0.1034 0.0000 0.0000  plane waves:    2675
 k-point 85 :   0.0862 0.0000 0.0000  plane waves:    2683
 k-point 86 :   0.0690 0.0000 0.0000  plane waves:    2685
 k-point 87 :   0.0517 0.0000 0.0000  plane waves:    2683
 k-point 88 :   0.0345 0.0000 0.0000  plane waves:    2683
 k-point 89 :   0.0172 0.0000 0.0000  plane waves:    2683
 k-point 90 :   0.0000 0.0000 0.0000  plane waves:    2691
 k-point 91 :   0.0000 0.0000 0.0000  plane waves:    2691
 k-point 92 :   0.0000 0.0000 0.0172  plane waves:    2697
 k-point 93 :   0.0000 0.0000 0.0345  plane waves:    2697
 k-point 94 :   0.0000 0.0000 0.0517  plane waves:    2697
 k-point 95 :   0.0000 0.0000 0.0690  plane waves:    2697
 k-point 96 :   0.0000 0.0000 0.0862  plane waves:    2685
 k-point 97 :   0.0000 0.0000 0.1034  plane waves:    2667
 k-point 98 :   0.0000 0.0000 0.1207  plane waves:    2667
 k-point 99 :   0.0000 0.0000 0.1379  plane waves:    2673
 k-point ** :   0.0000 0.0000 0.1552  plane waves:    2680
 k-point ** :   0.0000 0.0000 0.1724  plane waves:    2680
 k-point ** :   0.0000 0.0000 0.1897  plane waves:    2680
 k-point ** :   0.0000 0.0000 0.2069  plane waves:    2680
 k-point ** :   0.0000 0.0000 0.2241  plane waves:    2692
 k-point ** :   0.0000 0.0000 0.2414  plane waves:    2692
 k-point ** :   0.0000 0.0000 0.2586  plane waves:    2692
 k-point ** :   0.0000 0.0000 0.2759  plane waves:    2692
 k-point ** :   0.0000 0.0000 0.2931  plane waves:    2668
 k-point ** :   0.0000 0.0000 0.3103  plane waves:    2668
 k-point ** :   0.0000 0.0000 0.3276  plane waves:    2668
 k-point ** :   0.0000 0.0000 0.3448  plane waves:    2668
 k-point ** :   0.0000 0.0000 0.3621  plane waves:    2668
 k-point ** :   0.0000 0.0000 0.3793  plane waves:    2656
 k-point ** :   0.0000 0.0000 0.3966  plane waves:    2656
 k-point ** :   0.0000 0.0000 0.4138  plane waves:    2674
 k-point ** :   0.0000 0.0000 0.4310  plane waves:    2668
 k-point ** :   0.0000 0.0000 0.4483  plane waves:    2662
 k-point ** :   0.0000 0.0000 0.4655  plane waves:    2662
 k-point ** :   0.0000 0.0000 0.4828  plane waves:    2668
 k-point ** :   0.0000 0.0000 0.5000  plane waves:    2662
 k-point ** :   0.0000 0.0000 0.5000  plane waves:    2662
 k-point ** :   0.0115 0.0115 0.5000  plane waves:    2662
 k-point ** :   0.0230 0.0230 0.5000  plane waves:    2664
 k-point ** :   0.0345 0.0345 0.5000  plane waves:    2668
 k-point ** :   0.0460 0.0460 0.5000  plane waves:    2662
 k-point ** :   0.0575 0.0575 0.5000  plane waves:    2678
 k-point ** :   0.0690 0.0690 0.5000  plane waves:    2674
 k-point ** :   0.0805 0.0805 0.5000  plane waves:    2672
 k-point ** :   0.0920 0.0920 0.5000  plane waves:    2668
 k-point ** :   0.1034 0.1034 0.5000  plane waves:    2666
 k-point ** :   0.1149 0.1149 0.5000  plane waves:    2656
 k-point ** :   0.1264 0.1264 0.5000  plane waves:    2656
 k-point ** :   0.1379 0.1379 0.5000  plane waves:    2664
 k-point ** :   0.1494 0.1494 0.5000  plane waves:    2660
 k-point ** :   0.1609 0.1609 0.5000  plane waves:    2656
 k-point ** :   0.1724 0.1724 0.5000  plane waves:    2664
 k-point ** :   0.1839 0.1839 0.5000  plane waves:    2664
 k-point ** :   0.1954 0.1954 0.5000  plane waves:    2664
 k-point ** :   0.2069 0.2069 0.5000  plane waves:    2660
 k-point ** :   0.2184 0.2184 0.5000  plane waves:    2672
 k-point ** :   0.2299 0.2299 0.5000  plane waves:    2676
 k-point ** :   0.2414 0.2414 0.5000  plane waves:    2672
 k-point ** :   0.2529 0.2529 0.5000  plane waves:    2670
 k-point ** :   0.2644 0.2644 0.5000  plane waves:    2678
 k-point ** :   0.2759 0.2759 0.5000  plane waves:    2690
 k-point ** :   0.2874 0.2874 0.5000  plane waves:    2682
 k-point ** :   0.2988 0.2988 0.5000  plane waves:    2682
 k-point ** :   0.3103 0.3103 0.5000  plane waves:    2688
 k-point ** :   0.3218 0.3218 0.5000  plane waves:    2692
 k-point ** :   0.3333 0.3333 0.5000  plane waves:    2688
 k-point ** :   0.3333 0.3333 0.5000  plane waves:    2688
 k-point ** :   0.3391 0.3218 0.5000  plane waves:    2688
 k-point ** :   0.3448 0.3103 0.5000  plane waves:    2692
 k-point ** :   0.3506 0.2988 0.5000  plane waves:    2688
 k-point ** :   0.3563 0.2874 0.5000  plane waves:    2684
 k-point ** :   0.3621 0.2759 0.5000  plane waves:    2680
 k-point ** :   0.3678 0.2644 0.5000  plane waves:    2676
 k-point ** :   0.3736 0.2529 0.5000  plane waves:    2676
 k-point ** :   0.3793 0.2414 0.5000  plane waves:    2684
 k-point ** :   0.3851 0.2299 0.5000  plane waves:    2692
 k-point ** :   0.3908 0.2184 0.5000  plane waves:    2688
 k-point ** :   0.3965 0.2069 0.5000  plane waves:    2684
 k-point ** :   0.4023 0.1954 0.5000  plane waves:    2684
 k-point ** :   0.4080 0.1839 0.5000  plane waves:    2680
 k-point ** :   0.4138 0.1724 0.5000  plane waves:    2680
 k-point ** :   0.4195 0.1609 0.5000  plane waves:    2676
 k-point ** :   0.4253 0.1494 0.5000  plane waves:    2668
 k-point ** :   0.4310 0.1379 0.5000  plane waves:    2672
 k-point ** :   0.4368 0.1264 0.5000  plane waves:    2672
 k-point ** :   0.4425 0.1149 0.5000  plane waves:    2682
 k-point ** :   0.4483 0.1034 0.5000  plane waves:    2686
 k-point ** :   0.4540 0.0920 0.5000  plane waves:    2688
 k-point ** :   0.4598 0.0805 0.5000  plane waves:    2688
 k-point ** :   0.4655 0.0690 0.5000  plane waves:    2684
 k-point ** :   0.4713 0.0575 0.5000  plane waves:    2684
 k-point ** :   0.4770 0.0460 0.5000  plane waves:    2680
 k-point ** :   0.4828 0.0345 0.5000  plane waves:    2684
 k-point ** :   0.4885 0.0230 0.5000  plane waves:    2680
 k-point ** :   0.4943 0.0115 0.5000  plane waves:    2672
 k-point ** :   0.5000 0.0000 0.5000  plane waves:    2672
 k-point ** :   0.5000 0.0000 0.5000  plane waves:    2672
 k-point ** :   0.4828 0.0000 0.5000  plane waves:    2670
 k-point ** :   0.4655 0.0000 0.5000  plane waves:    2674
 k-point ** :   0.4483 0.0000 0.5000  plane waves:    2676
 k-point ** :   0.4310 0.0000 0.5000  plane waves:    2682
 k-point ** :   0.4138 0.0000 0.5000  plane waves:    2674
 k-point ** :   0.3966 0.0000 0.5000  plane waves:    2666
 k-point ** :   0.3793 0.0000 0.5000  plane waves:    2670
 k-point ** :   0.3621 0.0000 0.5000  plane waves:    2674
 k-point ** :   0.3448 0.0000 0.5000  plane waves:    2674
 k-point ** :   0.3276 0.0000 0.5000  plane waves:    2674
 k-point ** :   0.3103 0.0000 0.5000  plane waves:    2674
 k-point ** :   0.2931 0.0000 0.5000  plane waves:    2678
 k-point ** :   0.2759 0.0000 0.5000  plane waves:    2676
 k-point ** :   0.2586 0.0000 0.5000  plane waves:    2672
 k-point ** :   0.2414 0.0000 0.5000  plane waves:    2678
 k-point ** :   0.2241 0.0000 0.5000  plane waves:    2678
 k-point ** :   0.2069 0.0000 0.5000  plane waves:    2674
 k-point ** :   0.1897 0.0000 0.5000  plane waves:    2672
 k-point ** :   0.1724 0.0000 0.5000  plane waves:    2664
 k-point ** :   0.1552 0.0000 0.5000  plane waves:    2670
 k-point ** :   0.1379 0.0000 0.5000  plane waves:    2664
 k-point ** :   0.1207 0.0000 0.5000  plane waves:    2666
 k-point ** :   0.1034 0.0000 0.5000  plane waves:    2658
 k-point ** :   0.0862 0.0000 0.5000  plane waves:    2658
 k-point ** :   0.0690 0.0000 0.5000  plane waves:    2674
 k-point ** :   0.0517 0.0000 0.5000  plane waves:    2666
 k-point ** :   0.0345 0.0000 0.5000  plane waves:    2662
 k-point ** :   0.0172 0.0000 0.5000  plane waves:    2662
 k-point ** :   0.0000 0.0000 0.5000  plane waves:    2662

 maximum and minimum number of plane-waves per node :      2697     2640

 maximum number of plane-waves:      2697
 maximum index in each direction: 
   IXMAX=    8   IYMAX=    8   IZMAX=   10
   IXMIN=   -8   IYMIN=   -8   IZMIN=  -11


 serial   3D FFT for wavefunctions
 parallel 3D FFT for charge:
    minimum data exchange during FFTs selected (reduces bandwidth)


 total amount of memory used by VASP MPI-rank0   176866. kBytes
=======================================================================

   base      :      30000. kBytes
   nonl-proj :      59053. kBytes
   fftplans  :       8774. kBytes
   grid      :      14618. kBytes
   one-center:         24. kBytes
   wavefun   :      64397. kBytes

     INWAV:  cpu time    0.0001: real time    0.0010
 initial charge density was supplied:
 number of electron      17.9999999 magnetization 
 keeping initial charge density in first step


--------------------------------------------------------------------------------------------------------


 Maximum index for augmentation-charges        16687 (set IRDMAX)


--------------------------------------------------------------------------------------------------------


 First call to EWALD:  gamma=   0.375
 Maximum number of real-space cells 3x 3x 2
 Maximum number of reciprocal cells 3x 3x 3

    FEWALD:  cpu time    0.0012: real time    0.0012


--------------------------------------- Iteration      1(   1)  ---------------------------------------


    POTLOK:  cpu time    0.1786: real time    0.1901
    SETDIJ:  cpu time    0.2889: real time    0.3120
     EDDAV:  cpu time   14.9956: real time   16.0652
       DOS:  cpu time    0.0153: real time    0.0179
    --------------------------------------------
      LOOP:  cpu time   15.4785: real time   16.5851

 eigenvalue-minimisations  :  5880
 total energy-change (2. order) : 0.7811511E+02  (-0.6462804E+03)
 number of electron      17.9999999 magnetization 
 augmentation part       17.9999999 magnetization 

 Free energy of the ion-electron system (eV)
  ---------------------------------------------------
  alpha Z        PSCENC =         2.22054736
  Ewald energy   TEWEN  =      -667.17188197
  -Hartree energ DENC   =       -45.62390208
  -exchange      EXHF   =         0.00000000
  -V(xc)+E(xc)   XCENC  =       -84.15211815
  PAW double counting   =      1473.16534982    -1357.78338394
  entropy T*S    EENTRO =        -0.00163624
  eigenvalues    EBANDS =        87.64795043
  atomic energy  EATOM  =       669.81418755
  Solvation  Ediel_sol  =         0.00000000
  ---------------------------------------------------
  free energy    TOTEN  =        78.11511278 eV

  energy without entropy =       78.11674902  energy(sigma->0) =       78.11593090


--------------------------------------------------------------------------------------------------------




--------------------------------------- Iteration      1(   2)  ---------------------------------------


     EDDAV:  cpu time   19.0575: real time   20.9821
       DOS:  cpu time    0.0110: real time    0.0240
    --------------------------------------------
      LOOP:  cpu time   19.0685: real time   21.0060

 eigenvalue-minimisations  :  7986
 total energy-change (2. order) :-0.8072834E+02  (-0.7724084E+02)
 number of electron      17.9999999 magnetization 
 augmentation part       17.9999999 magnetization 

 Free energy of the ion-electron system (eV)
  ---------------------------------------------------
  alpha Z        PSCENC =         2.22054736
  Ewald energy   TEWEN  =      -667.17188197
  -Hartree energ DENC   =       -45.62390208
  -exchange      EXHF   =         0.00000000
  -V(xc)+E(xc)   XCENC  =       -84.15211815
  PAW double counting   =      1473.16534982    -1357.78338394
  entropy T*S    EENTRO =        -0.00028907
  eigenvalues    EBANDS =         6.91826730
  atomic energy  EATOM  =       669.81418755
  Solvation  Ediel_sol  =         0.00000000
  ---------------------------------------------------
  free energy    TOTEN  =        -2.61322318 eV

  energy without entropy =       -2.61293411  energy(sigma->0) =       -2.61307864


--------------------------------------------------------------------------------------------------------




--------------------------------------- Iteration      1(   3)  ---------------------------------------


     EDDAV:  cpu time   18.3518: real time   21.7475
       DOS:  cpu time    0.0071: real time    0.0072
    --------------------------------------------
      LOOP:  cpu time   18.3589: real time   21.7548

 eigenvalue-minimisations  :  6900
 total energy-change (2. order) :-0.5141387E+01  (-0.5098792E+01)
 number of electron      17.9999999 magnetization 
 augmentation part       17.9999999 magnetization 

 Free energy of the ion-electron system (eV)
  ---------------------------------------------------
  alpha Z        PSCENC =         2.22054736
  Ewald energy   TEWEN  =      -667.17188197
  -Hartree energ DENC   =       -45.62390208
  -exchange      EXHF   =         0.00000000
  -V(xc)+E(xc)   XCENC  =       -84.15211815
  PAW double counting   =      1473.16534982    -1357.78338394
  entropy T*S    EENTRO =        -0.00001349
  eigenvalues    EBANDS =         1.77660496
  atomic energy  EATOM  =       669.81418755
  Solvation  Ediel_sol  =         0.00000000
  ---------------------------------------------------
  free energy    TOTEN  =        -7.75460993 eV

  energy without entropy =       -7.75459644  energy(sigma->0) =       -7.75460319


--------------------------------------------------------------------------------------------------------




--------------------------------------- Iteration      1(   4)  ---------------------------------------


     EDDAV:  cpu time   18.6008: real time   19.8482
       DOS:  cpu time    0.0081: real time    0.0088
    --------------------------------------------
      LOOP:  cpu time   18.6089: real time   19.8570

 eigenvalue-minimisations  :  7998
 total energy-change (2. order) :-0.9544938E-01  (-0.9537972E-01)
 number of electron      17.9999999 magnetization 
 augmentation part       17.9999999 magnetization 

 Free energy of the ion-electron system (eV)
  ---------------------------------------------------
  alpha Z        PSCENC =         2.22054736
  Ewald energy   TEWEN  =      -667.17188197
  -Hartree energ DENC   =       -45.62390208
  -exchange      EXHF   =         0.00000000
  -V(xc)+E(xc)   XCENC  =       -84.15211815
  PAW double counting   =      1473.16534982    -1357.78338394
  entropy T*S    EENTRO =        -0.00001656
  eigenvalues    EBANDS =         1.68115865
  atomic energy  EATOM  =       669.81418755
  Solvation  Ediel_sol  =         0.00000000
  ---------------------------------------------------
  free energy    TOTEN  =        -7.85005931 eV

  energy without entropy =       -7.85004276  energy(sigma->0) =       -7.85005103


--------------------------------------------------------------------------------------------------------




--------------------------------------- Iteration      1(   5)  ---------------------------------------


     EDDAV:  cpu time   17.6207: real time   20.0563
       DOS:  cpu time    0.0100: real time    0.0152
    --------------------------------------------
      LOOP:  cpu time   17.6307: real time   20.0715

 eigenvalue-minimisations  :  7358
 total energy-change (2. order) :-0.1615212E-02  (-0.1615200E-02)
 number of electron      17.9999999 magnetization 
 augmentation part       17.9999999 magnetization 

 Free energy of the ion-electron system (eV)
  ---------------------------------------------------
  alpha Z        PSCENC =         2.22054736
  Ewald energy   TEWEN  =      -667.17188197
  -Hartree energ DENC   =       -45.62390208
  -exchange      EXHF   =         0.00000000
  -V(xc)+E(xc)   XCENC  =       -84.15211815
  PAW double counting   =      1473.16534982    -1357.78338394
  entropy T*S    EENTRO =        -0.00001656
  eigenvalues    EBANDS =         1.67954344
  atomic energy  EATOM  =       669.81418755
  Solvation  Ediel_sol  =         0.00000000
  ---------------------------------------------------
  free energy    TOTEN  =        -7.85167452 eV

  energy without entropy =       -7.85165796  energy(sigma->0) =       -7.85166624


--------------------------------------------------------------------------------------------------------




--------------------------------------- Iteration      1(   6)  ---------------------------------------


     EDDAV:  cpu time   19.9175: real time   21.9663
       DOS:  cpu time    0.0072: real time    0.0074
    --------------------------------------------
      LOOP:  cpu time   19.9247: real time   21.9737

 eigenvalue-minimisations  :  8740
 total energy-change (2. order) :-0.7852230E-04  (-0.7852265E-04)
 number of electron      17.9999999 magnetization 
 augmentation part       17.9999999 magnetization 

 Free energy of the ion-electron system (eV)
  ---------------------------------------------------
  alpha Z        PSCENC =         2.22054736
  Ewald energy   TEWEN  =      -667.17188197
  -Hartree energ DENC   =       -45.62390208
  -exchange      EXHF   =         0.00000000
  -V(xc)+E(xc)   XCENC  =       -84.15211815
  PAW double counting   =      1473.16534982    -1357.78338394
  entropy T*S    EENTRO =        -0.00001656
  eigenvalues    EBANDS =         1.67946492
  atomic energy  EATOM  =       669.81418755
  Solvation  Ediel_sol  =         0.00000000
  ---------------------------------------------------
  free energy    TOTEN  =        -7.85175305 eV

  energy without entropy =       -7.85173649  energy(sigma->0) =       -7.85174477


--------------------------------------------------------------------------------------------------------




--------------------------------------- Iteration      1(   7)  ---------------------------------------


     EDDAV:  cpu time   17.8949: real time   19.8628
       DOS:  cpu time    0.0079: real time    0.0082
    --------------------------------------------
      LOOP:  cpu time   17.9028: real time   19.8710

 eigenvalue-minimisations  :  7412
 total energy-change (2. order) :-0.5144090E-06  (-0.5144374E-06)
 number of electron      17.9999999 magnetization 
 augmentation part       17.9999999 magnetization 

 Free energy of the ion-electron system (eV)
  ---------------------------------------------------
  alpha Z        PSCENC =         2.22054736
  Ewald energy   TEWEN  =      -667.17188197
  -Hartree energ DENC   =       -45.62390208
  -exchange      EXHF   =         0.00000000
  -V(xc)+E(xc)   XCENC  =       -84.15211815
  PAW double counting   =      1473.16534982    -1357.78338394
  entropy T*S    EENTRO =        -0.00001656
  eigenvalues    EBANDS =         1.67946440
  atomic energy  EATOM  =       669.81418755
  Solvation  Ediel_sol  =         0.00000000
  ---------------------------------------------------
  free energy    TOTEN  =        -7.85175356 eV

  energy without entropy =       -7.85173700  energy(sigma->0) =       -7.85174528


--------------------------------------------------------------------------------------------------------




--------------------------------------- Iteration      1(   8)  ---------------------------------------


     EDDAV:  cpu time   17.1196: real time   18.0749
       DOS:  cpu time    0.0069: real time    0.0069
    --------------------------------------------
      LOOP:  cpu time   17.1265: real time   18.0817

 eigenvalue-minimisations  :  7554
 total energy-change (2. order) :-0.2268166E-07  (-0.2269109E-07)
 number of electron      17.9999999 magnetization 
 augmentation part       17.9999999 magnetization 

 Free energy of the ion-electron system (eV)
  ---------------------------------------------------
  alpha Z        PSCENC =         2.22054736
  Ewald energy   TEWEN  =      -667.17188197
  -Hartree energ DENC   =       -45.62390208
  -exchange      EXHF   =         0.00000000
  -V(xc)+E(xc)   XCENC  =       -84.15211815
  PAW double counting   =      1473.16534982    -1357.78338394
  entropy T*S    EENTRO =        -0.00001656
  eigenvalues    EBANDS =         1.67946438
  atomic energy  EATOM  =       669.81418755
  Solvation  Ediel_sol  =         0.00000000
  ---------------------------------------------------
  free energy    TOTEN  =        -7.85175358 eV

  energy without entropy =       -7.85173702  energy(sigma->0) =       -7.85174530


--------------------------------------------------------------------------------------------------------




--------------------------------------- Iteration      1(   9)  ---------------------------------------


     EDDAV:  cpu time   13.1227: real time   13.3945
       DOS:  cpu time    0.0070: real time    0.0070
    --------------------------------------------
      LOOP:  cpu time   13.1297: real time   13.4015

 eigenvalue-minimisations  :  5426
 total energy-change (2. order) :-0.6039045E-09  (-0.5877352E-09)
 number of electron      17.9999999 magnetization 
 augmentation part       17.9999999 magnetization 

 Free energy of the ion-electron system (eV)
  ---------------------------------------------------
  alpha Z        PSCENC =         2.22054736
  Ewald energy   TEWEN  =      -667.17188197
  -Hartree energ DENC   =       -45.62390208
  -exchange      EXHF   =         0.00000000
  -V(xc)+E(xc)   XCENC  =       -84.15211815
  PAW double counting   =      1473.16534982    -1357.78338394
  entropy T*S    EENTRO =        -0.00001656
  eigenvalues    EBANDS =         1.67946438
  atomic energy  EATOM  =       669.81418755
  Solvation  Ediel_sol  =         0.00000000
  ---------------------------------------------------
  free energy    TOTEN  =        -7.85175358 eV

  energy without entropy =       -7.85173702  energy(sigma->0) =       -7.85174530


--------------------------------------------------------------------------------------------------------




 average (electrostatic) potential at core
  the test charge radii are     1.1897
  (the norm of the test charge is              1.0000)
       1 -89.3842       2 -89.3842       3 -89.3842



 E-fermi :   5.6467     XC(G=0):  -8.9226     alpha+bet :-10.2156


 k-point     1 :       0.0000    0.0000    0.0000
  band No.  band energies     occupation 
      1      -7.8437      2.00000
      2      -4.6768      2.00000
      3      -4.6768      2.00000
      4       2.5546      2.00000
      5       2.8181      2.00000
      6       2.8181      2.00000
      7       3.9154      2.00000
      8       3.9154      2.00000
      9       4.7261      2.00000
     10       6.5248      0.00000
     11       6.5248      0.00000
     12       7.0787      0.00000
     13      10.5773      0.00000
     14      10.5773      0.00000

 k-point     2 :       0.0115    0.0115    0.0000
  band No.  band energies     occupation 
      1      -7.8411      2.00000
      2      -4.6776      2.00000
      3      -4.6762      2.00000
      4       2.5279      2.00000
      5       2.7958      2.00000
      6       2.8150      2.00000
      7       3.9255      2.00000
      8       3.9475      2.00000
      9       4.7334      2.00000
     10       6.5127      0.00000
     11       6.5226      0.00000
     12       7.0733      0.00000
     13      10.5733      0.00000
     14      10.5745      0.00000

 k-point     3 :       0.0230    0.0230    0.0000
  band No.  band energies     occupation 
      1      -7.8335      2.00000
      2      -4.6800      2.00000
      3      -4.6745      2.00000
      4       2.4532      2.00000
      5       2.7330      2.00000
      6       2.8082      2.00000
      7       3.9515      2.00000
      8       4.0351      2.00000
      9       4.7546      2.00000
     10       6.4776      0.00000
     11       6.5158      0.00000
     12       7.0583      0.00000
     13      10.5603      0.00000
     14      10.5647      0.00000

 k-point     4 :       0.0345    0.0345    0.0000
  band No.  band energies     occupation 
      1      -7.8208      2.00000
      2      -4.6841      2.00000
      3      -4.6718      2.00000
      4       2.3444      2.00000
      5       2.6396      2.00000
      6       2.8008      2.00000
      7       3.9837      2.00000
      8       4.1601      2.00000
      9       4.7879      2.00000
     10       6.4233      0.00000
     11       6.5046      0.00000
     12       7.0376      0.00000
     13      10.5363      0.00000
     14      10.5449      0.00000

 k-point     5 :       0.0460    0.0460    0.0000
  band No.  band energies     occupation 
      1      -7.8030      2.00000
      2      -4.6900      2.00000
      3      -4.6682      2.00000
      4       2.2161      2.00000
      5       2.5259      2.00000
      6       2.7931      2.00000
      7       4.0131      2.00000
      8       4.3043      2.00000
      9       4.8288      2.00000
     10       6.3557      0.00000
     11       6.4899      0.00000
     12       7.0163      0.00000
     13      10.4991      0.00000
     14      10.5123      0.00000

 k-point     6 :       0.0575    0.0575    0.0000
  band No.  band energies     occupation 
      1      -7.7803      2.00000
      2      -4.6978      2.00000
      3      -4.6638      2.00000
      4       2.0796      2.00000
      5       2.4002      2.00000
      6       2.7847      2.00000
      7       4.0341      2.00000
      8       4.4522      2.00000
      9       4.8700      2.00000
     10       6.2834      0.00000
     11       6.4749      0.00000
     12       6.9997      0.00000
     13      10.4481      0.00000
     14      10.4669      0.00000

 k-point     7 :       0.0690    0.0690    0.0000
  band No.  band energies     occupation 
      1      -7.7528      2.00000
      2      -4.7077      2.00000
      3      -4.6589      2.00000
      4       1.9418      2.00000
      5       2.2685      2.00000
      6       2.7750      2.00000
      7       4.0445      2.00000
      8       4.5895      2.00000
      9       4.9019      2.00000
     10       6.2178      0.00000
     11       6.4655      0.00000
     12       6.9913      0.00000
     13      10.3845      0.00000
     14      10.4113      0.00000

 k-point     8 :       0.0805    0.0805    0.0000
  band No.  band energies     occupation 
      1      -7.7206      2.00000
      2      -4.7198      2.00000
      3      -4.6539      2.00000
      4       1.8074      2.00000
      5       2.1353      2.00000
      6       2.7635      2.00000
      7       4.0440      2.00000
      8       4.7004      2.00000
      9       4.9143      2.00000
     10       6.1734      0.00000
     11       6.4693      0.00000
     12       6.9930      0.00000
     13      10.3116      0.00000
     14      10.3500      0.00000

 k-point     9 :       0.0920    0.0920    0.0000
  band No.  band energies     occupation 
      1      -7.6838      2.00000
      2      -4.7343      2.00000
      3      -4.6489      2.00000
      4       1.6797      2.00000
      5       2.0038      2.00000
      6       2.7501      2.00000
      7       4.0334      2.00000
      8       4.7691      2.00000
      9       4.8995      2.00000
     10       6.1663      0.00000
     11       6.4932      0.00000
     12       7.0051      0.00000
     13      10.2337      0.00000
     14      10.2876      0.00000

 k-point    10 :       0.1034    0.1034    0.0000
  band No.  band energies     occupation 
      1      -7.6425      2.00000
      2      -4.7513      2.00000
      3      -4.6444      2.00000
      4       1.5607      2.00000
      5       1.8764      2.00000
      6       2.7343      2.00000
      7       4.0132      2.00000
      8       4.7848      2.00000
      9       4.8546      2.00000
     10       6.2075      0.00000
     11       6.5403      0.00000
     12       7.0274      0.00000
     13      10.1549      0.00000
     14      10.2283      0.00000

 k-point    11 :       0.1149    0.1149    0.0000
  band No.  band energies     occupation 
      1      -7.5972      2.00000
      2      -4.7709      2.00000
      3      -4.6407      2.00000
      4       1.4521      2.00000
      5       1.7552      2.00000
      6       2.7159      2.00000
      7       3.9840      2.00000
      8       4.7489      2.00000
      9       4.7813      2.00000
     10       6.2960      0.00000
     11       6.6092      0.00000
     12       7.0598      0.00000
     13      10.0792      0.00000
     14      10.1755      0.00000

 k-point    12 :       0.1264    0.1264    0.0000
  band No.  band energies     occupation 
      1      -7.5479      2.00000
      2      -4.7932      2.00000
      3      -4.6383      2.00000
      4       1.3549      2.00000
      5       1.6417      2.00000
      6       2.6948      2.00000
      7       3.9463      2.00000
      8       4.6724      2.00000
      9       4.6849      2.00000
     10       6.4211      0.00000
     11       6.6949      0.00000
     12       7.1026      0.00000
     13      10.0095      0.00000
     14      10.1316      0.00000

 k-point    13 :       0.1379    0.1379    0.0000
  band No.  band energies     occupation 
      1      -7.4950      2.00000
      2      -4.8182      2.00000
      3      -4.6375      2.00000
      4       1.2701      2.00000
      5       1.5372      2.00000
      6       2.6710      2.00000
      7       3.9002      2.00000
      8       4.5686      2.00000
      9       4.5715      2.00000
     10       6.5695      0.00000
     11       6.7912      0.00000
     12       7.1566      0.00000
     13       9.9483      0.00000
     14      10.0984      0.00000

 k-point    14 :       0.1494    0.1494    0.0000
  band No.  band energies     occupation 
      1      -7.4389      2.00000
      2      -4.8456      2.00000
      3      -4.6388      2.00000
      4       1.1980      2.00000
      5       1.4429      2.00000
      6       2.6444      2.00000
      7       3.8457      2.00000
      8       4.4473      2.00000
      9       4.4485      2.00000
     10       6.7306      0.00000
     11       6.8915      0.00000
     12       7.2232      0.00000
     13       9.8977      0.00000
     14      10.0769      0.00000

 k-point    15 :       0.1609    0.1609    0.0000
  band No.  band energies     occupation 
      1      -7.3800      2.00000
      2      -4.8753      2.00000
      3      -4.6425      2.00000
      4       1.1391      2.00000
      5       1.3595      2.00000
      6       2.6151      2.00000
      7       3.7827      2.00000
      8       4.3172      2.00000
      9       4.3193      2.00000
     10       6.8967      0.00000
     11       6.9904      0.00000
     12       7.3039      0.00000
     13       9.8588      0.00000
     14      10.0681      0.00000

 k-point    16 :       0.1724    0.1724    0.0000
  band No.  band energies     occupation 
      1      -7.3187      2.00000
      2      -4.9069      2.00000
      3      -4.6490      2.00000
      4       1.0934      2.00000
      5       1.2878      2.00000
      6       2.5835      2.00000
      7       3.7110      2.00000
      8       4.1857      2.00000
      9       4.1860      2.00000
     10       7.0631      0.00000
     11       7.0848      0.00000
     12       7.3986      0.00000
     13       9.8328      0.00000
     14      10.0722      0.00000

 k-point    17 :       0.1839    0.1839    0.0000
  band No.  band energies     occupation 
      1      -7.2558      2.00000
      2      -4.9398      2.00000
      3      -4.6586      2.00000
      4       1.0607      2.00000
      5       1.2283      2.00000
      6       2.5500      2.00000
      7       3.6304      2.00000
      8       4.0519      2.00000
      9       4.0565      2.00000
     10       7.1742      0.00000
     11       7.2261      0.00000
     12       7.5052      0.00000
     13       9.8200      0.00000
     14      10.0894      0.00000

 k-point    18 :       0.1954    0.1954    0.0000
  band No.  band energies     occupation 
      1      -7.1917      2.00000
      2      -4.9734      2.00000
      3      -4.6714      2.00000
      4       1.0404      2.00000
      5       1.1812      2.00000
      6       2.5154      2.00000
      7       3.5409      2.00000
      8       3.9191      2.00000
      9       3.9324      2.00000
     10       7.2604      0.00000
     11       7.3836      0.00000
     12       7.6199      0.00000
     13       9.8207      0.00000
     14      10.1196      0.00000

 k-point    19 :       0.2069    0.2069    0.0000
  band No.  band energies     occupation 
      1      -7.1274      2.00000
      2      -5.0069      2.00000
      3      -4.6877      2.00000
      4       1.0320      2.00000
      5       1.1465      2.00000
      6       2.4806      2.00000
      7       3.4435      2.00000
      8       3.7891      2.00000
      9       3.8152      2.00000
     10       7.3454      0.00000
     11       7.5338      0.00000
     12       7.7388      0.00000
     13       9.8346      0.00000
     14      10.1625      0.00000

 k-point    20 :       0.2184    0.2184    0.0000
  band No.  band energies     occupation 
      1      -7.0636      2.00000
      2      -5.0392      2.00000
      3      -4.7075      2.00000
      4       1.0344      2.00000
      5       1.1240      2.00000
      6       2.4468      2.00000
      7       3.3399      2.00000
      8       3.6629      2.00000
      9       3.7056      2.00000
     10       7.4308      0.00000
     11       7.6754      0.00000
     12       7.8585      0.00000
     13       9.8609      0.00000
     14      10.2177      0.00000

 k-point    21 :       0.2299    0.2299    0.0000
  band No.  band energies     occupation 
      1      -7.0015      2.00000
      2      -5.0693      2.00000
      3      -4.7308      2.00000
      4       1.0462      2.00000
      5       1.1131      2.00000
      6       2.4158      2.00000
      7       3.2331      2.00000
      8       3.5412      2.00000
      9       3.6031      2.00000
     10       7.5173      0.00000
     11       7.8076      0.00000
     12       7.9763      0.00000
     13       9.8986      0.00000
     14      10.2850      0.00000

 k-point    22 :       0.2414    0.2414    0.0000
  band No.  band energies     occupation 
      1      -6.9422      2.00000
      2      -5.0958      2.00000
      3      -4.7573      2.00000
      4       1.0657      2.00000
      5       1.1130      2.00000
      6       2.3893      2.00000
      7       3.1264      2.00000
      8       3.4244      2.00000
      9       3.5067      2.00000
     10       7.6055      0.00000
     11       7.9293      0.00000
     12       8.0898      0.00000
     13       9.9464      0.00000
     14      10.3636      0.00000

 k-point    23 :       0.2529    0.2529    0.0000
  band No.  band energies     occupation 
      1      -6.8870      2.00000
      2      -5.1175      2.00000
      3      -4.7869      2.00000
      4       1.0910      2.00000
      5       1.1222      2.00000
      6       2.3699      2.00000
      7       3.0231      2.00000
      8       3.3126      2.00000
      9       3.4156      2.00000
     10       7.6952      0.00000
     11       8.0394      0.00000
     12       8.1966      0.00000
     13      10.0025      0.00000
     14      10.4533      0.00000

 k-point    24 :       0.2644    0.2644    0.0000
  band No.  band energies     occupation 
      1      -6.8370      2.00000
      2      -5.1329      2.00000
      3      -4.8192      2.00000
      4       1.1194      2.00000
      5       1.1389      2.00000
      6       2.3602      2.00000
      7       2.9266      2.00000
      8       3.2060      2.00000
      9       3.3295      2.00000
     10       7.7861      0.00000
     11       8.1365      0.00000
     12       8.2945      0.00000
     13      10.0651      0.00000
     14      10.5535      0.00000

 k-point    25 :       0.2759    0.2759    0.0000
  band No.  band energies     occupation 
      1      -6.7936      2.00000
      2      -5.1408      2.00000
      3      -4.8539      2.00000
      4       1.1486      2.00000
      5       1.1607      2.00000
      6       2.3629      2.00000
      7       2.8396      2.00000
      8       3.1046      2.00000
      9       3.2485      2.00000
     10       7.8778      0.00000
     11       8.2185      0.00000
     12       8.3809      0.00000
     13      10.1320      0.00000
     14      10.6636      0.00000

 k-point    26 :       0.2874    0.2874    0.0000
  band No.  band energies     occupation 
      1      -6.7576      2.00000
      2      -5.1402      2.00000
      3      -4.8906      2.00000
      4       1.1758      2.00000
      5       1.1847      2.00000
      6       2.3808      2.00000
      7       2.7647      2.00000
      8       3.0085      2.00000
      9       3.1735      2.00000
     10       7.9694      0.00000
     11       8.2829      0.00000
     12       8.4534      0.00000
     13      10.2011      0.00000
     14      10.7833      0.00000

 k-point    27 :       0.2988    0.2988    0.0000
  band No.  band energies     occupation 
      1      -6.7298      2.00000
      2      -5.1304      2.00000
      3      -4.9288      2.00000
      4       1.1989      2.00000
      5       1.2075      2.00000
      6       2.4158      2.00000
      7       2.7040      2.00000
      8       2.9178      2.00000
      9       3.1064      2.00000
     10       8.0597      0.00000
     11       8.3264      0.00000
     12       8.5094      0.00000
     13      10.2696      0.00000
     14      10.9120      0.00000

 k-point    28 :       0.3103    0.3103    0.0000
  band No.  band energies     occupation 
      1      -6.7106      2.00000
      2      -5.1114      2.00000
      3      -4.9680      2.00000
      4       1.2166      2.00000
      5       1.2256      2.00000
      6       2.4687      2.00000
      7       2.6578      2.00000
      8       2.8333      2.00000
      9       3.0504      2.00000
     10       8.1472      0.00000
     11       8.3453      0.00000
     12       8.5467      0.00000
     13      10.3334      0.00000
     14      11.0494      0.00000

 k-point    29 :       0.3218    0.3218    0.0000
  band No.  band energies     occupation 
      1      -6.6995      2.00000
      2      -5.0834      2.00000
      3      -5.0077      2.00000
      4       1.2287      2.00000
      5       1.2357      2.00000
      6       2.5367      2.00000
      7       2.6240      2.00000
      8       2.7577      2.00000
      9       3.0110      2.00000
     10       8.2285      0.00000
     11       8.3361      0.00000
     12       8.5649      0.00000
     13      10.3846      0.00000
     14      11.1951      0.00000

 k-point    30 :       0.3333    0.3333    0.0000
  band No.  band energies     occupation 
      1      -6.6960      2.00000
      2      -5.0475      2.00000
      3      -5.0474      2.00000
      4       1.2359      2.00000
      5       1.2359      2.00000
      6       2.5967      2.00000
      7       2.5967      2.00000
      8       2.7132      2.00000
      9       2.9959      2.00000
     10       8.2961      0.00000
     11       8.2962      0.00000
     12       8.5683      0.00000
     13      10.4071      0.00000
     14      11.3490      0.00000

 k-point    31 :       0.3333    0.3333    0.0000
  band No.  band energies     occupation 
      1      -6.6960      2.00000
      2      -5.0475      2.00000
      3      -5.0474      2.00000
      4       1.2359      2.00000
      5       1.2359      2.00000
      6       2.5967      2.00000
      7       2.5967      2.00000
      8       2.7132      2.00000
      9       2.9959      2.00000
     10       8.2961      0.00000
     11       8.2962      0.00000
     12       8.5683      0.00000
     13      10.4071      0.00000
     14      11.3490      0.00000

 k-point    32 :       0.3391    0.3218    0.0000
  band No.  band energies     occupation 
      1      -6.6968      2.00000
      2      -5.0672      2.00000
      3      -5.0268      2.00000
      4       1.2321      2.00000
      5       1.2380      2.00000
      6       2.5831      2.00000
      7       2.5948      2.00000
      8       2.7311      2.00000
      9       3.0001      2.00000
     10       8.2643      0.00000
     11       8.3195      0.00000
     12       8.5689      0.00000
     13      10.3997      0.00000
     14      11.2805      0.00000

 k-point    33 :       0.3448    0.3103    0.0000
  band No.  band energies     occupation 
      1      -6.6991      2.00000
      2      -5.0867      2.00000
      3      -5.0047      2.00000
      4       1.2257      2.00000
      5       1.2394      2.00000
      6       2.5685      2.00000
      7       2.5725      2.00000
      8       2.7744      2.00000
      9       3.0131      2.00000
     10       8.2246      0.00000
     11       8.3310      0.00000
     12       8.5733      0.00000
     13      10.3755      0.00000
     14      11.2346      0.00000

 k-point    34 :       0.3506    0.2988    0.0000
  band No.  band energies     occupation 
      1      -6.7028      2.00000
      2      -5.1060      2.00000
      3      -4.9814      2.00000
      4       1.2169      2.00000
      5       1.2401      2.00000
      6       2.5435      2.00000
      7       2.5525      2.00000
      8       2.8293      2.00000
      9       3.0349      2.00000
     10       8.1773      0.00000
     11       8.3273      0.00000
     12       8.5850      0.00000
     13      10.3334      0.00000
     14      11.2125      0.00000

 k-point    35 :       0.3563    0.2874    0.0000
  band No.  band energies     occupation 
      1      -6.7076      2.00000
      2      -5.1251      2.00000
      3      -4.9569      2.00000
      4       1.2061      2.00000
      5       1.2406      2.00000
      6       2.5129      2.00000
      7       2.5350      2.00000
      8       2.8904      2.00000
      9       3.0655      2.00000
     10       8.1228      0.00000
     11       8.3076      0.00000
     12       8.6044      0.00000
     13      10.2748      0.00000
     14      11.2127      0.00000

 k-point    36 :       0.3621    0.2759    0.0000
  band No.  band energies     occupation 
      1      -6.7134      2.00000
      2      -5.1438      2.00000
      3      -4.9316      2.00000
      4       1.1933      2.00000
      5       1.2408      2.00000
      6       2.4823      2.00000
      7       2.5161      2.00000
      8       2.9559      2.00000
      9       3.1042      2.00000
     10       8.0617      0.00000
     11       8.2736      0.00000
     12       8.6301      0.00000
     13      10.2032      0.00000
     14      11.2316      0.00000

 k-point    37 :       0.3678    0.2644    0.0000
  band No.  band energies     occupation 
      1      -6.7202      2.00000
      2      -5.1621      2.00000
      3      -4.9056      2.00000
      4       1.1791      2.00000
      5       1.2409      2.00000
      6       2.4521      2.00000
      7       2.4963      2.00000
      8       3.0250      2.00000
      9       3.1505      2.00000
     10       7.9944      0.00000
     11       8.2280      0.00000
     12       8.6595      0.00000
     13      10.1222      0.00000
     14      11.2655      0.00000

[...]
      4       0.6845      2.00000
      5       2.0075      2.00000
      6       2.2939      2.00000
      7       3.3804      2.00000
      8       3.6529      2.00000
      9       4.5091      2.00000
     10       6.9780      0.00000
     11       7.4996      0.00000
     12       7.6881      0.00000
     13      10.0906      0.00000
     14      11.1093      0.00000

 k-point   192 :       0.3103    0.0000    0.5000
  band No.  band energies     occupation 
      1      -6.6150      2.00000
      2      -6.4566      2.00000
      3      -3.7715      2.00000
      4       0.7947      2.00000
      5       2.0275      2.00000
      6       2.3368      2.00000
      7       3.4184      2.00000
      8       3.6739      2.00000
      9       4.4236      2.00000
     10       6.9611      0.00000
     11       7.5409      0.00000
     12       7.6244      0.00000
     13      10.0815      0.00000
     14      11.1143      0.00000

 k-point   193 :       0.2931    0.0000    0.5000
  band No.  band energies     occupation 
      1      -6.6455      2.00000
      2      -6.5071      2.00000
      3      -3.6868      2.00000
      4       0.9091      2.00000
      5       2.0525      2.00000
      6       2.3813      2.00000
      7       3.4588      2.00000
      8       3.6943      2.00000
      9       4.3480      2.00000
     10       6.9279      0.00000
     11       7.5120      0.00000
     12       7.6186      0.00000
     13      10.0745      0.00000
     14      11.0955      0.00000

 k-point   194 :       0.2759    0.0000    0.5000
  band No.  band energies     occupation 
      1      -6.6763      2.00000
      2      -6.5564      2.00000
      3      -3.6019      2.00000
      4       1.0254      2.00000
      5       2.0836      2.00000
      6       2.4273      2.00000
      7       3.5007      2.00000
      8       3.7132      2.00000
      9       4.2849      2.00000
     10       6.8835      0.00000
     11       7.4292      0.00000
     12       7.6468      0.00000
     13      10.0704      0.00000
     14      11.0479      0.00000

 k-point   195 :       0.2586    0.0000    0.5000
  band No.  band energies     occupation 
      1      -6.7070      2.00000
      2      -6.6041      2.00000
      3      -3.5174      2.00000
      4       1.1407      2.00000
      5       2.1221      2.00000
      6       2.4743      2.00000
      7       3.5421      2.00000
      8       3.7305      2.00000
      9       4.2366      2.00000
     10       6.8307      0.00000
     11       7.3351      0.00000
     12       7.6608      0.00000
     13      10.0696      0.00000
     14      10.9729      0.00000

 k-point   196 :       0.2414    0.0000    0.5000
  band No.  band energies     occupation 
      1      -6.7375      2.00000
      2      -6.6498      2.00000
      3      -3.4341      2.00000
      4       1.2515      2.00000
      5       2.1699      2.00000
      6       2.5220      2.00000
      7       3.5797      2.00000
      8       3.7484      2.00000
      9       4.2054      2.00000
     10       6.7716      0.00000
     11       7.2344      0.00000
     12       7.6526      0.00000
     13      10.0720      0.00000
     14      10.8783      0.00000

 k-point   197 :       0.2241    0.0000    0.5000
  band No.  band energies     occupation 
      1      -6.7672      2.00000
      2      -6.6934      2.00000
      3      -3.3527      2.00000
      4       1.3541      2.00000
      5       2.2288      2.00000
      6       2.5700      2.00000
      7       3.6084      2.00000
      8       3.7722      2.00000
      9       4.1919      2.00000
     10       6.7075      0.00000
     11       7.1287      0.00000
     12       7.6188      0.00000
     13      10.0767      0.00000
     14      10.7753      0.00000

 k-point   198 :       0.2069    0.0000    0.5000
  band No.  band energies     occupation 
      1      -6.7959      2.00000
      2      -6.7345      2.00000
      3      -3.2739      2.00000
      4       1.4450      2.00000
      5       2.2998      2.00000
      6       2.6178      2.00000
      7       3.6250      2.00000
      8       3.8076      2.00000
      9       4.1946      2.00000
     10       6.6395      0.00000
     11       7.0194      0.00000
     12       7.5584      0.00000
     13      10.0815      0.00000
     14      10.6749      0.00000

 k-point   199 :       0.1897    0.0000    0.5000
  band No.  band energies     occupation 
      1      -6.8233      2.00000
      2      -6.7729      2.00000
      3      -3.1984      2.00000
      4       1.5218      2.00000
      5       2.3822      2.00000
      6       2.6648      2.00000
      7       3.6338      2.00000
      8       3.8551      2.00000
      9       4.2106      2.00000
     10       6.5685      0.00000
     11       6.9077      0.00000
     12       7.4719      0.00000
     13      10.0816      0.00000
     14      10.5879      0.00000

 k-point   200 :       0.1724    0.0000    0.5000
  band No.  band energies     occupation 
      1      -6.8492      2.00000
      2      -6.8084      2.00000
      3      -3.1267      2.00000
      4       1.5839      2.00000
      5       2.4726      2.00000
      6       2.7106      2.00000
      7       3.6439      2.00000
      8       3.9109      2.00000
      9       4.2365      2.00000
     10       6.4958      0.00000
     11       6.7952      0.00000
     12       7.3614      0.00000
     13      10.0698      0.00000
     14      10.5255      0.00000

 k-point   201 :       0.1552    0.0000    0.5000
  band No.  band energies     occupation 
      1      -6.8733      2.00000
      2      -6.8409      2.00000
      3      -3.0596      2.00000
      4       1.6326      2.00000
      5       2.5653      2.00000
      6       2.7546      2.00000
      7       3.6639      2.00000
      8       3.9721      2.00000
      9       4.2691      2.00000
     10       6.4223      0.00000
     11       6.6831      0.00000
     12       7.2298      0.00000
     13      10.0399      0.00000
     14      10.4961      0.00000

 k-point   202 :       0.1379    0.0000    0.5000
  band No.  band energies     occupation 
      1      -6.8954      2.00000
      2      -6.8703      2.00000
      3      -2.9977      2.00000
      4       1.6696      2.00000
      5       2.6531      2.00000
      6       2.7958      2.00000
      7       3.7009      2.00000
      8       4.0367      2.00000
      9       4.3060      2.00000
     10       6.3495      0.00000
     11       6.5731      0.00000
     12       7.0811      0.00000
     13       9.9926      0.00000
     14      10.4997      0.00000

 k-point   203 :       0.1207    0.0000    0.5000
  band No.  band energies     occupation 
      1      -6.9153      2.00000
      2      -6.8964      2.00000
      3      -2.9414      2.00000
      4       1.6974      2.00000
      5       2.7299      2.00000
      6       2.8332      2.00000
      7       3.7592      2.00000
      8       4.1035      2.00000
      9       4.3449      2.00000
     10       6.2786      0.00000
     11       6.4669      0.00000
     12       6.9197      0.00000
     13       9.9361      0.00000
     14      10.5286      0.00000

 k-point   204 :       0.1034    0.0000    0.5000
  band No.  band energies     occupation 
      1      -6.9329      2.00000
      2      -6.9192      2.00000
      3      -2.8915      2.00000
      4       1.7179      2.00000
      5       2.7923      2.00000
      6       2.8655      2.00000
      7       3.8391      2.00000
      8       4.1714      2.00000
      9       4.3839      2.00000
     10       6.2114      0.00000
     11       6.3664      0.00000
     12       6.7505      0.00000
     13       9.8782      0.00000
     14      10.5736      0.00000

 k-point   205 :       0.0862    0.0000    0.5000
  band No.  band energies     occupation 
      1      -6.9480      2.00000
      2      -6.9386      2.00000
      3      -2.8482      2.00000
      4       1.7327      2.00000
      5       2.8405      2.00000
      6       2.8912      2.00000
      7       3.9356      2.00000
      8       4.2401      2.00000
      9       4.4211      2.00000
     10       6.1499      0.00000
     11       6.2738      0.00000
     12       6.5791      0.00000
     13       9.8245      0.00000
     14      10.6277      0.00000

 k-point   206 :       0.0690    0.0000    0.5000
  band No.  band energies     occupation 
      1      -6.9605      2.00000
      2      -6.9546      2.00000
      3      -2.8122      2.00000
      4       1.7432      2.00000
      5       2.8769      2.00000
      6       2.9101      2.00000
      7       4.0385      2.00000
      8       4.3097      2.00000
      9       4.4547      2.00000
     10       6.0961      0.00000
     11       6.1912      0.00000
     12       6.4123      0.00000
     13       9.7780      0.00000
     14      10.6846      0.00000

 k-point   207 :       0.0517    0.0000    0.5000
  band No.  band energies     occupation 
      1      -6.9703      2.00000
      2      -6.9670      2.00000
      3      -2.7838      2.00000
      4       1.7504      2.00000
      5       2.9035      2.00000
      6       2.9229      2.00000
      7       4.1338      2.00000
      8       4.3802      2.00000
      9       4.4828      2.00000
     10       6.0525      0.00000
     11       6.1211      0.00000
     12       6.2591      0.00000
     13       9.7406      0.00000
     14      10.7388      0.00000

 k-point   208 :       0.0345    0.0000    0.5000
  band No.  band energies     occupation 
      1      -6.9774      2.00000
      2      -6.9760      2.00000
      3      -2.7632      2.00000
      4       1.7550      2.00000
      5       2.9219      2.00000
      6       2.9307      2.00000
      7       4.2077      2.00000
      8       4.4481      2.00000
      9       4.5040      2.00000
     10       6.0213      0.00000
     11       6.0652      0.00000
     12       6.1323      0.00000
     13       9.7133      0.00000
     14      10.7841      0.00000

 k-point   209 :       0.0172    0.0000    0.5000
  band No.  band energies     occupation 
      1      -6.9817      2.00000
      2      -6.9813      2.00000
      3      -2.7508      2.00000
      4       1.7576      2.00000
      5       2.9327      2.00000
      6       2.9350      2.00000
      7       4.2527      2.00000
      8       4.5010      2.00000
      9       4.5171      2.00000
     10       6.0044      0.00000
     11       6.0223      0.00000
     12       6.0511      0.00000
     13       9.6966      0.00000
     14      10.8148      0.00000

 k-point   210 :       0.0000    0.0000    0.5000
  band No.  band energies     occupation 
      1      -6.9831      2.00000
      2      -6.9831      2.00000
      3      -2.7467      2.00000
      4       1.7584      2.00000
      5       2.9363      2.00000
      6       2.9363      2.00000
      7       4.2676      2.00000
      8       4.5214      2.00000
      9       4.5215      2.00000
     10       6.0003      0.00000
     11       6.0003      0.00000
     12       6.0277      0.00000
     13       9.6911      0.00000
     14      10.8250      0.00000


--------------------------------------------------------------------------------------------------------


 soft charge-density along one line, spin component           1
         0         1         2         3         4         5         6         7         8         9
 total charge-density along one line

 pseudopotential strength for first ion, spin component:           1
 51.796  56.355   0.046   0.000  -0.026   0.066   0.000  -0.038
 56.355  61.319   0.050   0.000  -0.029   0.072   0.000  -0.042
  0.046   0.050  12.758  -0.007  -0.009  18.390  -0.010  -0.014
  0.000   0.000  -0.007  12.763  -0.012  -0.010  18.398  -0.017
 -0.026  -0.029  -0.009  -0.012  12.747  -0.014  -0.017  18.375
  0.066   0.072  18.390  -0.010  -0.014  26.518  -0.014  -0.020
  0.000   0.000  -0.010  18.398  -0.017  -0.014  26.529  -0.024
 -0.038  -0.042  -0.014  -0.017  18.375  -0.020  -0.024  26.496
 -0.014  -0.016  -0.005   0.000   0.008  -0.007   0.001   0.012
 -0.010  -0.011   0.001   0.007   0.000   0.001   0.010   0.001
  0.009   0.010  -0.005   0.000   0.003  -0.008   0.000   0.005
 -0.017  -0.019   0.000  -0.004  -0.001   0.001  -0.006  -0.001
 -0.008  -0.009  -0.008  -0.001  -0.005  -0.012  -0.001  -0.007
 total augmentation occupancy for first ion, spin component:           1
  2.000   0.000   0.000   0.000   0.000   0.000   0.000   0.000   0.000   0.000   0.000   0.000   0.000
  0.000   0.000   0.000   0.000   0.000   0.000   0.000   0.000   0.000   0.000   0.000   0.000   0.000
  0.000   0.000   1.333   0.000   0.000   0.000   0.000   0.000   0.000   0.000   0.000   0.000   0.000
  0.000   0.000   0.000   1.333   0.000   0.000   0.000   0.000   0.000   0.000   0.000   0.000   0.000
  0.000   0.000   0.000   0.000   1.333   0.000   0.000   0.000   0.000   0.000   0.000   0.000   0.000
  0.000   0.000   0.000   0.000   0.000   0.000   0.000   0.000   0.000   0.000   0.000   0.000   0.000
  0.000   0.000   0.000   0.000   0.000   0.000   0.000   0.000   0.000   0.000   0.000   0.000   0.000
  0.000   0.000   0.000   0.000   0.000   0.000   0.000   0.000   0.000   0.000   0.000   0.000   0.000
  0.000   0.000   0.000   0.000   0.000   0.000   0.000   0.000   0.000   0.000   0.000   0.000   0.000
  0.000   0.000   0.000   0.000   0.000   0.000   0.000   0.000   0.000   0.000   0.000   0.000   0.000
  0.000   0.000   0.000   0.000   0.000   0.000   0.000   0.000   0.000   0.000   0.000   0.000   0.000
  0.000   0.000   0.000   0.000   0.000   0.000   0.000   0.000   0.000   0.000   0.000   0.000   0.000
  0.000   0.000   0.000   0.000   0.000   0.000   0.000   0.000   0.000   0.000   0.000   0.000   0.000


------------------------ aborting loop because EDIFF is reached ----------------------------------------





 total charge     

# of ion       s       p       d       tot
------------------------------------------
    1        1.433   1.815   0.039   3.287
    2        1.428   1.876   0.036   3.340
    3        1.431   1.830   0.039   3.301
--------------------------------------------------
tot          4.293   5.522   0.114   9.929

    CHARGE:  cpu time    1.1832: real time    1.2055
    FORLOC:  cpu time    0.0102: real time    0.0102
    FORNL :  cpu time    3.9384: real time    3.9915
    STRESS:  cpu time    6.6739: real time    7.2079
    FORCOR:  cpu time    0.1494: real time    0.1586
    FORHAR:  cpu time    0.0334: real time    0.0351
    OFIELD:  cpu time    0.0003: real time    0.0003

  FORCE on cell =-STRESS in cart. coord.  units (eV):
  Direction    XX          YY          ZZ          XY          YZ          ZX
  --------------------------------------------------------------------------------------
  Alpha Z     2.22055     2.22055     2.22055
  Ewald    -234.97646  -234.97646  -197.21971     0.00000     0.00000    -0.00000
  Hartree    12.54757    12.14207    22.61562    -0.22289     0.27308    -0.28471
  E(xc)     -70.30181   -70.40286   -69.84650    -0.02803     0.04679    -0.03859
  Local    -116.83934  -117.00265  -155.87284     0.38112     0.14038     0.01679
  n-local   334.66716   335.81349   330.60921     0.24310    -0.66127     0.54560
  augment   -81.38701   -81.91200   -79.18305    -0.19624     0.13868    -0.10849
  Kinetic   156.11298   163.40907   146.58558     4.07129     0.53216    -0.72033
  Fock        0.00000     0.00000     0.00000     0.00000     0.00000     0.00000
  -------------------------------------------------------------------------------------
  Total       2.04363     9.29121    -0.09114     4.24834     0.46984    -0.58973
  in kB      31.10403   141.41210    -1.38722    64.65973     7.15098    -8.97568
  external pressure =       57.04 kB  Pullay stress =        0.00 kB


 VOLUME and BASIS-vectors are now :
 -----------------------------------------------------------------------------
  energy-cutoff  :      500.00
  volume of cell :      105.27
      direct lattice vectors                 reciprocal lattice vectors
     2.259320305 -3.913257559 -0.000000000     0.221305496 -0.127770788  0.000000000
     2.259320305  3.913257559  0.000000000     0.221305496  0.127770788  0.000000000
    -0.000000000  0.000000000  5.953196681     0.000000000 -0.000000000  0.167976980

  length of vectors
     4.518640610  4.518640610  5.953196681     0.255541575  0.255541575  0.167976980


 FORCES acting on ions
    electron-ion (+dipol)            ewald-force                    non-local-force                 convergence-correction
 -----------------------------------------------------------------------------------------------
   -.744E+01 0.960E+01 -.263E+01   0.863E+01 -.149E+02 -.213E-09   -.181E+01 0.569E+01 0.145E+01   0.356E+00 -.285E-01 0.108E+01
   -.608E+01 -.929E+01 0.320E+00   0.863E+01 0.149E+02 0.213E-09   -.272E+01 -.574E+01 -.155E+00   0.496E-01 -.141E+00 -.499E-01
   0.129E+02 -.102E+01 0.231E+01   -.173E+02 0.837E-15 0.711E-14   0.505E+01 0.760E+00 -.130E+01   -.316E+00 0.180E+00 -.103E+01
 -----------------------------------------------------------------------------------------------
   -.596E+00 -.705E+00 -.169E-03   -.355E-14 0.837E-15 0.000E+00   0.523E+00 0.708E+00 -.274E-04   0.897E-01 0.106E-01 -.185E-06


 POSITION                                       TOTAL-FORCE (eV/Angst)
 -----------------------------------------------------------------------------------
      0.60691     -1.05119      0.99220        -0.278522      0.322290     -0.095378
      0.60691      1.05119      4.96100        -0.128093     -0.235726      0.115820
      3.30483      0.00000      2.97660         0.406615     -0.086564     -0.020442
 -----------------------------------------------------------------------------------
    total drift:                                0.016623      0.013656     -0.000197


--------------------------------------------------------------------------------------------------------



  FREE ENERGIE OF THE ION-ELECTRON SYSTEM (eV)
  ---------------------------------------------------
  free  energy   TOTEN  =        -7.85175358 eV

  energy  without entropy=       -7.85173702  energy(sigma->0) =       -7.85174530



--------------------------------------------------------------------------------------------------------


    POTLOK:  cpu time    0.3936: real time    0.4245


--------------------------------------------------------------------------------------------------------


     LOOP+:  cpu time  169.9094: real time  185.9505
    4ORBIT:  cpu time    0.0001: real time    0.0010



 total charge     

# of ion       s       p       d       tot
------------------------------------------
    1        1.433   1.815   0.039   3.287
    2        1.428   1.876   0.036   3.340
    3        1.431   1.830   0.039   3.301
--------------------------------------------------
tot          4.293   5.522   0.114   9.929


 total amount of memory used by VASP MPI-rank0   176866. kBytes
=======================================================================

   base      :      30000. kBytes
   nonl-proj :      59053. kBytes
   fftplans  :       8774. kBytes
   grid      :      14618. kBytes
   one-center:         24. kBytes
   wavefun   :      64397. kBytes

  
  
 General timing and accounting informations for this job:
 ========================================================
  
                  Total CPU time used (sec):      173.626
                            User time (sec):      170.001
                          System time (sec):        3.625
                         Elapsed time (sec):      190.118
  
                   Maximum memory used (kb):   207458304.
                   Average memory used (kb):           0.
  
                          Minor page faults:        58747
                          Major page faults:          891
                 Voluntary context switches:          192
