PROCAR lm decomposed
# of k-points:  210         # of bands:   14         # of ions:    3

 k-point     1 :    0.00000000 0.00000000 0.00000000     weight = 0.00476190

band     1 # energy   -7.84368270 # occ.  2.00000000

ion      s     py     pz     px    dxy    dyz    dz2    dxz  x2-y2    tot
    1  0.201  0.001  0.000  0.000  0.000  0.000  0.000  0.000  0.000  0.202
    2  0.201  0.001  0.000  0.000  0.000  0.000  0.000  0.000  0.000  0.202
    3  0.201  0.000  0.000  0.002  0.000  0.000  0.000  0.000  0.000  0.202
tot    0.602  0.002  0.000  0.002  0.000  0.000  0.000  0.000  0.000  0.607

band     2 # energy   -4.67680268 # occ.  2.00000000

ion      s     py     pz     px    dxy    dyz    dz2    dxz  x2-y2    tot
    1  0.124  0.000  0.018  0.001  0.000  0.000  0.000  0.000  0.000  0.144
    2  0.097  0.000  0.019  0.001  0.000  0.000  0.000  0.000  0.000  0.118
    3  0.441  0.000  0.000  0.000  0.000  0.000  0.000  0.000  0.000  0.441
tot    0.663  0.001  0.037  0.001  0.000  0.001  0.000  0.000  0.000  0.703

band     3 # energy   -4.67679682 # occ.  2.00000000

ion      s     py     pz     px    dxy    dyz    dz2    dxz  x2-y2    tot
    1  0.317  0.000  0.007  0.000  0.000  0.000  0.000  0.000  0.000  0.325
    2  0.345  0.000  0.005  0.000  0.000  0.000  0.000  0.000  0.000  0.351
    3  0.001  0.001  0.025  0.000  0.000  0.000  0.000  0.001  0.000  0.028
tot    0.663  0.001  0.037  0.001  0.000  0.000  0.000  0.001  0.000  0.703

band     4 # energy    2.55459511 # occ.  2.00000000

ion      s     py     pz     px    dxy    dyz    dz2    dxz  x2-y2    tot
    1  0.000  0.122  0.000  0.041  0.001  0.000  0.000  0.001  0.000  0.166
    2  0.000  0.122  0.000  0.041  0.001  0.000  0.000  0.001  0.000  0.166
    3  0.000  0.000  0.000  0.163  0.000  0.001  0.000  0.000  0.002  0.166
tot    0.000  0.244  0.000  0.244  0.002  0.001  0.001  0.001  0.002  0.497

band     5 # energy    2.81813465 # occ.  2.00000000

ion      s     py     pz     px    dxy    dyz    dz2    dxz  x2-y2    tot
    1  0.014  0.056  0.123  0.012  0.000  0.002  0.000  0.000  0.000  0.207
    2  0.015  0.058  0.119  0.010  0.000  0.002  0.000  0.000  0.000  0.205
    3  0.057  0.000  0.000  0.096  0.000  0.000  0.001  0.000  0.000  0.154
tot    0.085  0.115  0.242  0.118  0.000  0.004  0.001  0.000  0.001  0.566

band     6 # energy    2.81813870 # occ.  2.00000000

ion      s     py     pz     px    dxy    dyz    dz2    dxz  x2-y2    tot
    1  0.043  0.030  0.038  0.057  0.000  0.000  0.001  0.001  0.000  0.170
    2  0.042  0.028  0.042  0.058  0.000  0.000  0.001  0.001  0.000  0.172
    3  0.000  0.059  0.161  0.000  0.001  0.000  0.000  0.003  0.000  0.224
tot    0.085  0.118  0.242  0.115  0.001  0.000  0.001  0.004  0.000  0.566

band     7 # energy    3.91537909 # occ.  2.00000000

ion      s     py     pz     px    dxy    dyz    dz2    dxz  x2-y2    tot
    1  0.016  0.001  0.022  0.059  0.001  0.000  0.002  0.000  0.002  0.102
    2  0.016  0.000  0.020  0.056  0.001  0.000  0.002  0.000  0.002  0.097
    3  0.000  0.194  0.083  0.000  0.001  0.000  0.000  0.001  0.000  0.279
tot    0.032  0.195  0.125  0.115  0.003  0.000  0.004  0.001  0.003  0.478

band     8 # energy    3.91539026 # occ.  2.00000000

ion      s     py     pz     px    dxy    dyz    dz2    dxz  x2-y2    tot
    1  0.006  0.057  0.061  0.089  0.002  0.000  0.001  0.000  0.000  0.216
    2  0.005  0.058  0.063  0.093  0.002  0.000  0.001  0.000  0.000  0.222
    3  0.021  0.000  0.000  0.013  0.000  0.000  0.003  0.000  0.003  0.040
tot    0.032  0.115  0.125  0.195  0.003  0.001  0.004  0.000  0.003  0.478

band     9 # energy    4.72610844 # occ.  2.00000000

ion      s     py     pz     px    dxy    dyz    dz2    dxz  x2-y2    tot
    1  0.000  0.040  0.009  0.119  0.000  0.001  0.000  0.000  0.001  0.171
    2  0.000  0.040  0.009  0.119  0.000  0.001  0.000  0.000  0.001  0.171
    3  0.000  0.159  0.009  0.000  0.002  0.000  0.000  0.001  0.000  0.171
tot    0.000  0.239  0.027  0.239  0.002  0.001  0.000  0.001  0.002  0.512

band    10 # energy    6.52484359 # occ.  0.00000000

ion      s     py     pz     px    dxy    dyz    dz2    dxz  x2-y2    tot
    1  0.004  0.009  0.020  0.116  0.000  0.001  0.000  0.003  0.000  0.154
    2  0.004  0.007  0.021  0.114  0.000  0.001  0.000  0.003  0.000  0.150
    3  0.015  0.000  0.000  0.244  0.000  0.003  0.001  0.000  0.000  0.262
tot    0.023  0.016  0.042  0.474  0.000  0.006  0.001  0.005  0.000  0.566

band    11 # energy    6.52484949 # occ.  0.00000000

ion      s     py     pz     px    dxy    dyz    dz2    dxz  x2-y2    tot
    1  0.011  0.194  0.007  0.007  0.000  0.003  0.000  0.000  0.000  0.223
    2  0.012  0.197  0.007  0.009  0.000  0.003  0.001  0.001  0.000  0.228
    3  0.000  0.083  0.028  0.000  0.000  0.000  0.000  0.005  0.000  0.115
tot    0.023  0.474  0.042  0.016  0.000  0.005  0.001  0.006  0.000  0.566

band    12 # energy    7.07872661 # occ.  0.00000000

ion      s     py     pz     px    dxy    dyz    dz2    dxz  x2-y2    tot
    1  0.000  0.001  0.173  0.003  0.001  0.001  0.000  0.000  0.004  0.184
    2  0.000  0.001  0.173  0.003  0.001  0.001  0.000  0.000  0.004  0.184
    3  0.000  0.004  0.173  0.000  0.005  0.000  0.000  0.002  0.000  0.184
tot    0.000  0.006  0.519  0.006  0.008  0.003  0.000  0.003  0.008  0.552

band    13 # energy   10.57728377 # occ.  0.00000000

ion      s     py     pz     px    dxy    dyz    dz2    dxz  x2-y2    tot
    1  0.000  0.001  0.011  0.000  0.010  0.000  0.050  0.008  0.000  0.081
    2  0.000  0.001  0.012  0.000  0.010  0.001  0.048  0.008  0.000  0.081
    3  0.000  0.003  0.045  0.000  0.015  0.000  0.000  0.016  0.000  0.079
tot    0.000  0.006  0.068  0.000  0.035  0.001  0.098  0.033  0.000  0.240

band    14 # energy   10.57728726 # occ.  0.00000000

ion      s     py     pz     px    dxy    dyz    dz2    dxz  x2-y2    tot
    1  0.000  0.000  0.034  0.002  0.000  0.014  0.015  0.001  0.013  0.080
    2  0.000  0.000  0.033  0.002  0.000  0.013  0.017  0.000  0.013  0.080
    3  0.000  0.000  0.000  0.001  0.000  0.006  0.065  0.000  0.009  0.081
tot    0.000  0.000  0.068  0.006  0.000  0.033  0.098  0.001  0.035  0.240


 k-point     2 :    0.01149414 0.01149414 0.00000000     weight = 0.00476190

band     1 # energy   -7.84114775 # occ.  2.00000000

ion      s     py     pz     px    dxy    dyz    dz2    dxz  x2-y2    tot
    1  0.201  0.001  0.000  0.000  0.000  0.000  0.000  0.000  0.000  0.203
    2  0.201  0.001  0.000  0.000  0.000  0.000  0.000  0.000  0.000  0.203
    3  0.201  0.000  0.000  0.002  0.000  0.000  0.000  0.000  0.000  0.202
tot    0.602  0.002  0.000  0.002  0.000  0.000  0.000  0.000  0.000  0.607

band     2 # energy   -4.67760537 # occ.  2.00000000

ion      s     py     pz     px    dxy    dyz    dz2    dxz  x2-y2    tot
    1  0.111  0.000  0.019  0.001  0.000  0.000  0.000  0.000  0.000  0.131
    2  0.110  0.000  0.019  0.001  0.000  0.000  0.000  0.000  0.000  0.131
    3  0.442  0.000  0.000  0.000  0.000  0.000  0.000  0.000  0.000  0.442
tot    0.663  0.001  0.037  0.001  0.000  0.001  0.000  0.000  0.000  0.704

band     3 # energy   -4.67622497 # occ.  2.00000000

ion      s     py     pz     px    dxy    dyz    dz2    dxz  x2-y2    tot
    1  0.331  0.000  0.006  0.000  0.000  0.000  0.000  0.000  0.000  0.338
    2  0.331  0.000  0.006  0.000  0.000  0.000  0.000  0.000  0.000  0.338
    3  0.000  0.001  0.025  0.000  0.000  0.000  0.000  0.001  0.000  0.027
tot    0.663  0.001  0.037  0.001  0.000  0.000  0.000  0.001  0.000  0.704

band     4 # energy    2.52788190 # occ.  2.00000000

ion      s     py     pz     px    dxy    dyz    dz2    dxz  x2-y2    tot
    1  0.001  0.107  0.008  0.042  0.001  0.000  0.000  0.001  0.000  0.161
    2  0.001  0.107  0.008  0.042  0.001  0.000  0.000  0.001  0.000  0.161
    3  0.003  0.000  0.000  0.169  0.000  0.001  0.001  0.000  0.001  0.175
tot    0.005  0.214  0.017  0.253  0.002  0.001  0.002  0.001  0.002  0.497

band     5 # energy    2.79579264 # occ.  2.00000000

ion      s     py     pz     px    dxy    dyz    dz2    dxz  x2-y2    tot
    1  0.042  0.029  0.040  0.059  0.000  0.000  0.001  0.001  0.000  0.171
    2  0.042  0.029  0.040  0.059  0.000  0.000  0.001  0.001  0.000  0.171
    3  0.000  0.059  0.160  0.000  0.001  0.000  0.000  0.002  0.000  0.222
tot    0.083  0.117  0.239  0.118  0.001  0.000  0.001  0.004  0.000  0.563

band     6 # energy    2.81501999 # occ.  2.00000000

ion      s     py     pz     px    dxy    dyz    dz2    dxz  x2-y2    tot
    1  0.013  0.074  0.112  0.010  0.000  0.002  0.000  0.000  0.000  0.212
    2  0.013  0.074  0.112  0.010  0.000  0.002  0.000  0.000  0.000  0.212
    3  0.053  0.000  0.000  0.083  0.000  0.000  0.001  0.000  0.000  0.137
tot    0.080  0.149  0.224  0.103  0.000  0.004  0.001  0.000  0.001  0.562

band     7 # energy    3.92548646 # occ.  2.00000000

ion      s     py     pz     px    dxy    dyz    dz2    dxz  x2-y2    tot
    1  0.016  0.001  0.021  0.054  0.001  0.000  0.002  0.000  0.002  0.098
    2  0.016  0.001  0.021  0.054  0.001  0.000  0.002  0.000  0.002  0.098
    3  0.000  0.199  0.084  0.000  0.001  0.000  0.000  0.001  0.000  0.285
tot    0.033  0.200  0.127  0.109  0.003  0.000  0.004  0.001  0.003  0.480

band     8 # energy    3.94745406 # occ.  2.00000000

ion      s     py     pz     px    dxy    dyz    dz2    dxz  x2-y2    tot
    1  0.005  0.055  0.063  0.092  0.002  0.000  0.001  0.000  0.000  0.218
    2  0.005  0.055  0.063  0.092  0.002  0.000  0.001  0.000  0.000  0.218
    3  0.022  0.000  0.000  0.018  0.000  0.000  0.003  0.000  0.003  0.046
tot    0.033  0.110  0.126  0.202  0.003  0.001  0.004  0.000  0.003  0.482

band     9 # energy    4.73336965 # occ.  2.00000000

ion      s     py     pz     px    dxy    dyz    dz2    dxz  x2-y2    tot
    1  0.000  0.041  0.010  0.120  0.000  0.001  0.000  0.000  0.001  0.173
    2  0.000  0.041  0.010  0.120  0.000  0.001  0.000  0.000  0.001  0.173
    3  0.000  0.154  0.009  0.000  0.002  0.000  0.000  0.001  0.000  0.166
tot    0.000  0.236  0.029  0.241  0.002  0.001  0.000  0.001  0.002  0.513

band    10 # energy    6.51273246 # occ.  0.00000000

ion      s     py     pz     px    dxy    dyz    dz2    dxz  x2-y2    tot
    1  0.004  0.008  0.021  0.114  0.000  0.001  0.000  0.003  0.000  0.151
    2  0.004  0.008  0.021  0.114  0.000  0.001  0.000  0.003  0.000  0.151
    3  0.015  0.000  0.000  0.244  0.000  0.003  0.001  0.000  0.000  0.262
tot    0.024  0.016  0.042  0.471  0.000  0.006  0.001  0.005  0.000  0.565

band    11 # energy    6.52260685 # occ.  0.00000000

ion      s     py     pz     px    dxy    dyz    dz2    dxz  x2-y2    tot
    1  0.011  0.194  0.007  0.008  0.000  0.003  0.001  0.001  0.000  0.224
    2  0.011  0.194  0.007  0.008  0.000  0.003  0.001  0.001  0.000  0.224
    3  0.000  0.084  0.029  0.000  0.000  0.000  0.000  0.005  0.000  0.118
tot    0.023  0.471  0.042  0.017  0.000  0.005  0.001  0.006  0.000  0.566

band    12 # energy    7.07327075 # occ.  0.00000000

ion      s     py     pz     px    dxy    dyz    dz2    dxz  x2-y2    tot
    1  0.000  0.002  0.173  0.003  0.001  0.001  0.000  0.001  0.004  0.185
    2  0.000  0.002  0.173  0.003  0.001  0.001  0.000  0.001  0.004  0.185
    3  0.000  0.004  0.172  0.000  0.005  0.000  0.000  0.002  0.000  0.182
tot    0.000  0.007  0.517  0.006  0.008  0.003  0.000  0.003  0.008  0.551

band    13 # energy   10.57325498 # occ.  0.00000000

ion      s     py     pz     px    dxy    dyz    dz2    dxz  x2-y2    tot
    1  0.000  0.000  0.034  0.002  0.000  0.013  0.016  0.001  0.013  0.079
    2  0.000  0.000  0.034  0.002  0.000  0.013  0.016  0.001  0.013  0.079
    3  0.000  0.000  0.000  0.001  0.000  0.006  0.065  0.000  0.008  0.081
tot    0.001  0.000  0.067  0.006  0.001  0.032  0.097  0.001  0.034  0.239

band    14 # energy   10.57446613 # occ.  0.00000000

ion      s     py     pz     px    dxy    dyz    dz2    dxz  x2-y2    tot
    1  0.000  0.002  0.011  0.000  0.010  0.000  0.049  0.008  0.000  0.081
    2  0.000  0.002  0.011  0.000  0.010  0.000  0.049  0.008  0.000  0.081
    3  0.000  0.003  0.045  0.000  0.015  0.000  0.000  0.016  0.000  0.079
tot    0.000  0.006  0.067  0.001  0.034  0.001  0.098  0.032  0.001  0.240


 k-point     3 :    0.02298828 0.02298828 0.00000000     weight = 0.00476190

band     1 # energy   -7.83350510 # occ.  2.00000000

ion      s     py     pz     px    dxy    dyz    dz2    dxz  x2-y2    tot
    1  0.201  0.001  0.000  0.000  0.000  0.000  0.000  0.000  0.000  0.203
    2  0.201  0.001  0.000  0.000  0.000  0.000  0.000  0.000  0.000  0.203
    3  0.201  0.000  0.000  0.002  0.000  0.000  0.000  0.000  0.000  0.202
tot    0.603  0.002  0.000  0.002  0.000  0.000  0.000  0.000  0.000  0.608

band     2 # energy   -4.68003486 # occ.  2.00000000

ion      s     py     pz     px    dxy    dyz    dz2    dxz  x2-y2    tot
    1  0.110  0.000  0.018  0.001  0.000  0.000  0.000  0.000  0.000  0.131
    2  0.110  0.000  0.018  0.001  0.000  0.000  0.000  0.000  0.000  0.131
    3  0.442  0.000  0.000  0.000  0.000  0.000  0.000  0.000  0.000  0.443
tot    0.663  0.001  0.037  0.001  0.000  0.001  0.000  0.000  0.000  0.704

band     3 # energy   -4.67453655 # occ.  2.00000000

ion      s     py     pz     px    dxy    dyz    dz2    dxz  x2-y2    tot
    1  0.332  0.000  0.006  0.000  0.000  0.000  0.000  0.000  0.000  0.339
    2  0.332  0.000  0.006  0.000  0.000  0.000  0.000  0.000  0.000  0.339
    3  0.000  0.001  0.025  0.000  0.000  0.000  0.000  0.001  0.000  0.027
tot    0.663  0.001  0.037  0.001  0.000  0.000  0.000  0.001  0.000  0.704

band     4 # energy    2.45319415 # occ.  2.00000000

ion      s     py     pz     px    dxy    dyz    dz2    dxz  x2-y2    tot
    1  0.002  0.078  0.025  0.044  0.001  0.000  0.001  0.001  0.000  0.152
    2  0.002  0.078  0.025  0.044  0.001  0.000  0.001  0.001  0.000  0.152
    3  0.009  0.000  0.000  0.179  0.000  0.001  0.001  0.000  0.001  0.191
tot    0.013  0.156  0.051  0.267  0.002  0.001  0.002  0.001  0.002  0.495

band     5 # energy    2.73301514 # occ.  2.00000000

ion      s     py     pz     px    dxy    dyz    dz2    dxz  x2-y2    tot
    1  0.040  0.028  0.038  0.062  0.000  0.000  0.001  0.001  0.000  0.169
    2  0.040  0.028  0.038  0.062  0.000  0.000  0.001  0.001  0.000  0.169
    3  0.000  0.058  0.155  0.000  0.001  0.000  0.000  0.002  0.000  0.216
tot    0.079  0.113  0.231  0.125  0.001  0.000  0.001  0.003  0.000  0.555

band     6 # energy    2.80824119 # occ.  2.00000000

ion      s     py     pz     px    dxy    dyz    dz2    dxz  x2-y2    tot
    1  0.012  0.108  0.094  0.008  0.000  0.002  0.000  0.000  0.000  0.224
    2  0.012  0.108  0.094  0.008  0.000  0.002  0.000  0.000  0.000  0.224
    3  0.045  0.000  0.000  0.060  0.000  0.000  0.001  0.000  0.001  0.106
tot    0.068  0.216  0.188  0.076  0.000  0.004  0.001  0.000  0.002  0.555

band     7 # energy    3.95146812 # occ.  2.00000000

ion      s     py     pz     px    dxy    dyz    dz2    dxz  x2-y2    tot
    1  0.018  0.001  0.022  0.047  0.001  0.000  0.002  0.000  0.002  0.092
    2  0.018  0.001  0.022  0.047  0.001  0.000  0.002  0.000  0.002  0.092
    3  0.000  0.211  0.088  0.000  0.001  0.000  0.000  0.001  0.000  0.301
tot    0.035  0.213  0.132  0.093  0.003  0.000  0.004  0.001  0.003  0.485

band     8 # energy    4.03513450 # occ.  2.00000000

ion      s     py     pz     px    dxy    dyz    dz2    dxz  x2-y2    tot
    1  0.005  0.050  0.064  0.095  0.002  0.000  0.001  0.000  0.000  0.217
    2  0.005  0.050  0.064  0.095  0.002  0.000  0.001  0.000  0.000  0.217
    3  0.024  0.000  0.000  0.030  0.000  0.000  0.002  0.000  0.003  0.059
tot    0.035  0.100  0.127  0.219  0.003  0.001  0.004  0.000  0.003  0.492

band     9 # energy    4.75462839 # occ.  2.00000000

ion      s     py     pz     px    dxy    dyz    dz2    dxz  x2-y2    tot
    1  0.000  0.044  0.012  0.123  0.000  0.001  0.000  0.000  0.001  0.182
    2  0.000  0.044  0.012  0.123  0.000  0.001  0.000  0.000  0.001  0.182
    3  0.000  0.141  0.010  0.000  0.002  0.000  0.000  0.001  0.000  0.153
tot    0.001  0.229  0.034  0.245  0.002  0.001  0.000  0.001  0.002  0.516

band    10 # energy    6.47763991 # occ.  0.00000000

ion      s     py     pz     px    dxy    dyz    dz2    dxz  x2-y2    tot
    1  0.005  0.008  0.022  0.109  0.000  0.002  0.000  0.003  0.000  0.149
    2  0.005  0.008  0.022  0.109  0.000  0.002  0.000  0.003  0.000  0.149
    3  0.016  0.000  0.000  0.243  0.000  0.003  0.001  0.000  0.000  0.262
tot    0.027  0.017  0.044  0.462  0.000  0.006  0.001  0.005  0.000  0.561

band    11 # energy    6.51581499 # occ.  0.00000000

ion      s     py     pz     px    dxy    dyz    dz2    dxz  x2-y2    tot
    1  0.012  0.188  0.006  0.010  0.000  0.002  0.001  0.001  0.000  0.219
    2  0.012  0.188  0.006  0.010  0.000  0.002  0.001  0.001  0.000  0.219
    3  0.000  0.087  0.033  0.000  0.000  0.000  0.000  0.005  0.000  0.126
tot    0.023  0.464  0.045  0.019  0.000  0.005  0.001  0.006  0.000  0.564

band    12 # energy    7.05827926 # occ.  0.00000000

ion      s     py     pz     px    dxy    dyz    dz2    dxz  x2-y2    tot
    1  0.000  0.004  0.171  0.004  0.002  0.002  0.000  0.001  0.004  0.186
    2  0.000  0.004  0.171  0.004  0.002  0.002  0.000  0.001  0.004  0.186
    3  0.000  0.003  0.167  0.000  0.005  0.000  0.000  0.002  0.000  0.177
tot    0.000  0.010  0.510  0.007  0.008  0.003  0.000  0.003  0.007  0.550

band    13 # energy   10.56028485 # occ.  0.00000000

ion      s     py     pz     px    dxy    dyz    dz2    dxz  x2-y2    tot
    1  0.001  0.000  0.033  0.003  0.001  0.011  0.016  0.002  0.011  0.078
    2  0.001  0.000  0.033  0.003  0.001  0.011  0.016  0.002  0.011  0.078
    3  0.001  0.000  0.000  0.000  0.000  0.006  0.064  0.000  0.008  0.079
tot    0.003  0.000  0.065  0.006  0.003  0.029  0.096  0.003  0.031  0.236

band    14 # energy   10.56468478 # occ.  0.00000000

ion      s     py     pz     px    dxy    dyz    dz2    dxz  x2-y2    tot
    1  0.000  0.003  0.011  0.001  0.009  0.000  0.048  0.007  0.001  0.080
    2  0.000  0.003  0.011  0.001  0.009  0.000  0.048  0.007  0.001  0.080
    3  0.000  0.003  0.043  0.000  0.017  0.000  0.000  0.014  0.000  0.077
tot    0.000  0.009  0.065  0.002  0.034  0.001  0.097  0.028  0.001  0.238


 k-point     4 :    0.03448241 0.03448241 0.00000000     weight = 0.00476190

band     1 # energy   -7.82078607 # occ.  2.00000000

ion      s     py     pz     px    dxy    dyz    dz2    dxz  x2-y2    tot
    1  0.201  0.001  0.000  0.000  0.000  0.000  0.000  0.000  0.000  0.203
    2  0.201  0.001  0.000  0.000  0.000  0.000  0.000  0.000  0.000  0.203
    3  0.200  0.000  0.000  0.002  0.000  0.000  0.000  0.000  0.000  0.202
tot    0.603  0.002  0.000  0.003  0.000  0.000  0.000  0.000  0.000  0.608

band     2 # energy   -4.68414791 # occ.  2.00000000

ion      s     py     pz     px    dxy    dyz    dz2    dxz  x2-y2    tot
    1  0.110  0.000  0.018  0.001  0.000  0.000  0.000  0.000  0.000  0.130
    2  0.110  0.000  0.018  0.001  0.000  0.000  0.000  0.000  0.000  0.130
    3  0.443  0.000  0.000  0.000  0.000  0.000  0.000  0.000  0.000  0.443
tot    0.664  0.001  0.036  0.002  0.000  0.001  0.000  0.000  0.000  0.704

band     3 # energy   -4.67180787 # occ.  2.00000000

ion      s     py     pz     px    dxy    dyz    dz2    dxz  x2-y2    tot
    1  0.332  0.000  0.006  0.000  0.000  0.000  0.000  0.000  0.000  0.339
    2  0.332  0.000  0.006  0.000  0.000  0.000  0.000  0.000  0.000  0.339
    3  0.000  0.001  0.024  0.000  0.000  0.000  0.000  0.001  0.000  0.027
tot    0.664  0.001  0.037  0.001  0.000  0.000  0.000  0.001  0.000  0.705

band     4 # energy    2.34435452 # occ.  2.00000000

ion      s     py     pz     px    dxy    dyz    dz2    dxz  x2-y2    tot
    1  0.003  0.055  0.040  0.045  0.001  0.000  0.001  0.001  0.000  0.145
    2  0.003  0.055  0.040  0.045  0.001  0.000  0.001  0.001  0.000  0.145
    3  0.013  0.000  0.000  0.184  0.000  0.001  0.001  0.000  0.001  0.199
tot    0.019  0.109  0.081  0.273  0.002  0.001  0.002  0.001  0.001  0.490

band     5 # energy    2.63961383 # occ.  2.00000000

ion      s     py     pz     px    dxy    dyz    dz2    dxz  x2-y2    tot
    1  0.037  0.027  0.035  0.067  0.000  0.000  0.001  0.001  0.000  0.167
    2  0.037  0.027  0.035  0.067  0.000  0.000  0.001  0.001  0.000  0.167
    3  0.000  0.056  0.150  0.000  0.001  0.000  0.000  0.002  0.000  0.209
tot    0.073  0.109  0.221  0.134  0.001  0.000  0.001  0.003  0.000  0.543

band     6 # energy    2.80079081 # occ.  2.00000000

ion      s     py     pz     px    dxy    dyz    dz2    dxz  x2-y2    tot
    1  0.010  0.137  0.078  0.006  0.000  0.002  0.000  0.000  0.001  0.234
    2  0.010  0.137  0.078  0.006  0.000  0.002  0.000  0.000  0.001  0.234
    3  0.038  0.000  0.000  0.041  0.000  0.000  0.001  0.000  0.001  0.080
tot    0.058  0.273  0.156  0.053  0.000  0.004  0.001  0.000  0.002  0.548

band     7 # energy    3.98370495 # occ.  2.00000000

ion      s     py     pz     px    dxy    dyz    dz2    dxz  x2-y2    tot
    1  0.019  0.000  0.023  0.037  0.001  0.000  0.002  0.000  0.002  0.084
    2  0.019  0.000  0.023  0.037  0.001  0.000  0.002  0.000  0.002  0.084
    3  0.000  0.229  0.091  0.000  0.001  0.000  0.000  0.001  0.000  0.322
tot    0.037  0.230  0.137  0.073  0.003  0.000  0.004  0.001  0.004  0.490

band     8 # energy    4.16012113 # occ.  2.00000000

ion      s     py     pz     px    dxy    dyz    dz2    dxz  x2-y2    tot
    1  0.005  0.045  0.064  0.100  0.002  0.000  0.001  0.000  0.000  0.216
    2  0.005  0.045  0.064  0.100  0.002  0.000  0.001  0.000  0.000  0.216
    3  0.026  0.000  0.000  0.041  0.000  0.000  0.002  0.000  0.003  0.073
tot    0.036  0.089  0.127  0.241  0.004  0.001  0.003  0.001  0.003  0.505

band     9 # energy    4.78791033 # occ.  2.00000000

ion      s     py     pz     px    dxy    dyz    dz2    dxz  x2-y2    tot
    1  0.001  0.050  0.016  0.125  0.000  0.001  0.000  0.000  0.001  0.193
    2  0.001  0.050  0.016  0.125  0.000  0.001  0.000  0.000  0.001  0.193
    3  0.000  0.120  0.011  0.000  0.002  0.000  0.000  0.002  0.000  0.135
tot    0.002  0.219  0.043  0.249  0.003  0.001  0.000  0.002  0.002  0.521

band    10 # energy    6.42327585 # occ.  0.00000000

ion      s     py     pz     px    dxy    dyz    dz2    dxz  x2-y2    tot
    1  0.007  0.009  0.023  0.102  0.000  0.002  0.000  0.003  0.000  0.146
    2  0.007  0.009  0.023  0.102  0.000  0.002  0.000  0.003  0.000  0.146
    3  0.017  0.000  0.000  0.243  0.000  0.003  0.001  0.000  0.000  0.263
tot    0.031  0.018  0.047  0.447  0.000  0.006  0.001  0.005  0.000  0.555

band    11 # energy    6.50457266 # occ.  0.00000000

ion      s     py     pz     px    dxy    dyz    dz2    dxz  x2-y2    tot
    1  0.012  0.178  0.005  0.012  0.000  0.002  0.001  0.001  0.000  0.211
    2  0.012  0.178  0.005  0.012  0.000  0.002  0.001  0.001  0.000  0.211
    3  0.000  0.092  0.041  0.000  0.000  0.000  0.000  0.005  0.000  0.138
tot    0.024  0.449  0.050  0.025  0.001  0.004  0.001  0.007  0.000  0.561

band    12 # energy    7.03756364 # occ.  0.00000000

ion      s     py     pz     px    dxy    dyz    dz2    dxz  x2-y2    tot
    1  0.000  0.008  0.169  0.004  0.002  0.002  0.000  0.001  0.003  0.189
    2  0.000  0.008  0.169  0.004  0.002  0.002  0.000  0.001  0.003  0.189
    3  0.000  0.002  0.160  0.000  0.006  0.000  0.000  0.002  0.000  0.169
tot    0.000  0.019  0.497  0.009  0.009  0.004  0.000  0.003  0.007  0.547

band    13 # energy   10.53627212 # occ.  0.00000000

ion      s     py     pz     px    dxy    dyz    dz2    dxz  x2-y2    tot
    1  0.002  0.000  0.031  0.004  0.003  0.009  0.015  0.003  0.010  0.077
    2  0.002  0.000  0.031  0.004  0.003  0.009  0.015  0.003  0.010  0.077
    3  0.002  0.000  0.000  0.000  0.000  0.005  0.062  0.000  0.007  0.077
tot    0.006  0.000  0.062  0.007  0.006  0.024  0.093  0.006  0.027  0.231

band    14 # energy   10.54485803 # occ.  0.00000000

ion      s     py     pz     px    dxy    dyz    dz2    dxz  x2-y2    tot
    1  0.000  0.004  0.011  0.002  0.008  0.000  0.048  0.006  0.001  0.080
    2  0.000  0.004  0.011  0.002  0.008  0.000  0.048  0.006  0.001  0.080
    3  0.000  0.004  0.041  0.000  0.019  0.000  0.000  0.011  0.000  0.075
tot    0.000  0.013  0.062  0.004  0.035  0.000  0.095  0.022  0.003  0.235


 k-point     5 :    0.04597655 0.04597655 0.00000000     weight = 0.00476190

band     1 # energy   -7.80304105 # occ.  2.00000000

ion      s     py     pz     px    dxy    dyz    dz2    dxz  x2-y2    tot
    1  0.202  0.001  0.000  0.001  0.000  0.000  0.000  0.000  0.000  0.203
    2  0.202  0.001  0.000  0.001  0.000  0.000  0.000  0.000  0.000  0.203
    3  0.200  0.000  0.000  0.002  0.000  0.000  0.000  0.000  0.000  0.202
tot    0.603  0.002  0.000  0.003  0.000  0.000  0.000  0.000  0.000  0.609

band     2 # energy   -4.69004358 # occ.  2.00000000

ion      s     py     pz     px    dxy    dyz    dz2    dxz  x2-y2    tot
    1  0.110  0.000  0.018  0.001  0.000  0.000  0.000  0.000  0.000  0.130
    2  0.110  0.000  0.018  0.001  0.000  0.000  0.000  0.000  0.000  0.130
    3  0.444  0.000  0.000  0.000  0.000  0.000  0.000  0.000  0.000  0.445
tot    0.665  0.001  0.036  0.002  0.000  0.001  0.000  0.000  0.000  0.705

band     3 # energy   -4.66817038 # occ.  2.00000000

ion      s     py     pz     px    dxy    dyz    dz2    dxz  x2-y2    tot
    1  0.333  0.000  0.006  0.000  0.000  0.000  0.000  0.000  0.000  0.340
    2  0.333  0.000  0.006  0.000  0.000  0.000  0.000  0.000  0.000  0.340
    3  0.000  0.001  0.024  0.000  0.000  0.000  0.000  0.001  0.000  0.026
tot    0.666  0.001  0.036  0.001  0.000  0.000  0.000  0.001  0.000  0.705

band     4 # energy    2.21614904 # occ.  2.00000000

ion      s     py     pz     px    dxy    dyz    dz2    dxz  x2-y2    tot
    1  0.003  0.040  0.051  0.045  0.001  0.000  0.001  0.000  0.000  0.141
    2  0.003  0.040  0.051  0.045  0.001  0.000  0.001  0.000  0.000  0.141
    3  0.015  0.000  0.000  0.183  0.000  0.001  0.001  0.000  0.001  0.201
tot    0.022  0.079  0.102  0.272  0.002  0.001  0.002  0.001  0.001  0.483

band     5 # energy    2.52589999 # occ.  2.00000000

ion      s     py     pz     px    dxy    dyz    dz2    dxz  x2-y2    tot
    1  0.034  0.025  0.033  0.071  0.000  0.000  0.001  0.001  0.000  0.165
    2  0.034  0.025  0.033  0.071  0.000  0.000  0.001  0.001  0.000  0.165
    3  0.000  0.054  0.146  0.000  0.001  0.000  0.000  0.002  0.000  0.202
tot    0.067  0.105  0.211  0.142  0.001  0.000  0.002  0.003  0.000  0.532

band     6 # energy    2.79311076 # occ.  2.00000000

ion      s     py     pz     px    dxy    dyz    dz2    dxz  x2-y2    tot
    1  0.009  0.155  0.067  0.005  0.000  0.002  0.000  0.000  0.001  0.240
    2  0.009  0.155  0.067  0.005  0.000  0.002  0.000  0.000  0.001  0.240
    3  0.033  0.000  0.000  0.029  0.000  0.000  0.001  0.000  0.001  0.064
tot    0.052  0.310  0.135  0.040  0.000  0.004  0.001  0.000  0.002  0.544

band     7 # energy    4.01311261 # occ.  2.00000000

ion      s     py     pz     px    dxy    dyz    dz2    dxz  x2-y2    tot
    1  0.019  0.000  0.024  0.027  0.001  0.000  0.002  0.000  0.002  0.075
    2  0.019  0.000  0.024  0.027  0.001  0.000  0.002  0.000  0.002  0.075
    3  0.000  0.249  0.092  0.000  0.001  0.000  0.000  0.000  0.000  0.343
tot    0.039  0.249  0.140  0.054  0.002  0.000  0.003  0.001  0.004  0.493

band     8 # energy    4.30427850 # occ.  2.00000000

ion      s     py     pz     px    dxy    dyz    dz2    dxz  x2-y2    tot
    1  0.005  0.040  0.062  0.107  0.002  0.000  0.001  0.000  0.000  0.218
    2  0.005  0.040  0.062  0.107  0.002  0.000  0.001  0.000  0.000  0.218
    3  0.027  0.000  0.000  0.050  0.000  0.001  0.002  0.000  0.003  0.083
tot    0.037  0.081  0.125  0.264  0.004  0.001  0.003  0.001  0.003  0.518

band     9 # energy    4.82882013 # occ.  2.00000000

ion      s     py     pz     px    dxy    dyz    dz2    dxz  x2-y2    tot
    1  0.002  0.057  0.021  0.125  0.000  0.001  0.000  0.000  0.001  0.207
    2  0.002  0.057  0.021  0.125  0.000  0.001  0.000  0.000  0.001  0.207
    3  0.000  0.096  0.014  0.000  0.002  0.000  0.000  0.002  0.000  0.114
tot    0.003  0.210  0.057  0.249  0.003  0.002  0.000  0.003  0.001  0.528

band    10 # energy    6.35569015 # occ.  0.00000000

ion      s     py     pz     px    dxy    dyz    dz2    dxz  x2-y2    tot
    1  0.010  0.010  0.026  0.092  0.000  0.002  0.000  0.003  0.000  0.142
    2  0.010  0.010  0.026  0.092  0.000  0.002  0.000  0.003  0.000  0.142
    3  0.018  0.000  0.000  0.243  0.000  0.003  0.001  0.000  0.000  0.264
tot    0.037  0.020  0.052  0.427  0.000  0.007  0.001  0.005  0.000  0.548

band    11 # energy    6.48991373 # occ.  0.00000000

ion      s     py     pz     px    dxy    dyz    dz2    dxz  x2-y2    tot
    1  0.012  0.163  0.004  0.017  0.001  0.002  0.001  0.001  0.000  0.201
    2  0.012  0.163  0.004  0.017  0.001  0.002  0.001  0.001  0.000  0.201
    3  0.000  0.099  0.051  0.000  0.000  0.000  0.000  0.006  0.000  0.155
tot    0.025  0.425  0.059  0.034  0.001  0.003  0.001  0.008  0.001  0.557

band    12 # energy    7.01632481 # occ.  0.00000000

ion      s     py     pz     px    dxy    dyz    dz2    dxz  x2-y2    tot
    1  0.000  0.016  0.164  0.005  0.002  0.002  0.000  0.001  0.003  0.194
    2  0.000  0.016  0.164  0.005  0.002  0.002  0.000  0.001  0.003  0.194
    3  0.000  0.001  0.149  0.000  0.006  0.000  0.000  0.001  0.000  0.158
tot    0.000  0.033  0.478  0.011  0.010  0.005  0.000  0.003  0.006  0.546

band    13 # energy   10.49911114 # occ.  0.00000000
