<?xml version="1.0" encoding="ISO-8859-1"?>
<modeling>
 <generator>
  <i name="program" type="string">vasp </i>
  <i name="version" type="string">5.4.4.18Apr17-6-g9f103f2a35  </i>
  <i name="subversion" type="string">(build May 21 2018 15:16:00) complex            parallel </i>
  <i name="platform" type="string">GUN_wannier90_optcell </i>
  <i name="date" type="string">2019 03 24 </i>
  <i name="time" type="string">22:40:47 </i>
 </generator>
 <incar>
  <i type="string" name="SYSTEM"> Te-a</i>
  <i type="int" name="ISTART">     0</i>
  <i type="string" name="PREC">a</i>
  <i type="string" name="ALGO">     N ! Normal     algorithm</i>
  <i type="logical" name="LDIAG"> T  </i>
  <i type="int" name="ICHARG">    11</i>
  <i type="int" name="NELM">  2000</i>
  <i type="int" name="NELMIN">     5</i>
  <i type="int" name="IBRION">    -1</i>
  <i name="EDIFF">      0.00000001</i>
  <i name="EDIFFG">     -0.00100000</i>
  <i type="int" name="NSW">     0</i>
  <i type="int" name="ISYM">    -1</i>
  <i type="int" name="NBLOCK">     1</i>
  <i type="int" name="KBLOCK">     5</i>
  <i name="ENCUT">    500.00000000</i>
  <i name="POTIM">      0.50000000</i>
  <i type="int" name="NEDOS">  3000</i>
  <i type="logical" name="LREAL"> F  </i>
  <i name="EMIN">    -15.00000000</i>
  <i name="EMAX">     15.00000000</i>
  <i type="int" name="ISMEAR">     0</i>
  <i name="SIGMA">      0.05000000</i>
  <i type="int" name="NWRITE">     1</i>
  <i type="logical" name="LCORR"> T  </i>
  <i type="logical" name="LWAVE"> F  </i>
  <i type="logical" name="LCHARG"> F  </i>
  <i type="int" name="LORBIT">    11</i>
  <i type="logical" name="LASPH"> T  </i>
  <i type="logical" name="GGA_COMPAT"> F  </i>
  <v type="int" name="KPOINT_BSE">    -1     0     0     0</v>
  <i type="int" name="NELM">  2000</i>
  <i type="logical" name="LASPH"> T  </i>
 </incar>
 <structure name="primitive_cell" >
  <crystal>
   <varray name="basis" >
    <v>       2.25932030      -3.91325756      -0.00000000 </v>
    <v>       2.25932030       3.91325756       0.00000000 </v>
    <v>      -0.00000000       0.00000000       5.95319668 </v>
   </varray>
   <i name="volume">    105.26802254 </i>
   <varray name="rec_basis" >
    <v>       0.22130550      -0.12777079       0.00000000 </v>
    <v>       0.22130550       0.12777079       0.00000000 </v>
    <v>       0.00000000      -0.00000000       0.16797698 </v>
   </varray>
  </crystal>
  <varray name="positions" >
   <v>       0.26862376       0.00000000       0.16666667 </v>
   <v>      -0.26862376      -0.26862376      -0.50000000 </v>
   <v>       0.00000000       0.26862376      -0.16666667 </v>
  </varray>
 </structure>
 <varray name="primitive_index" >
  <v type="int" >        1 </v>
  <v type="int" >        3 </v>
  <v type="int" >        2 </v>
 </varray>
 <kpoints>
  <generation param="listgenerated">
   <i name="divisions" type="int">      30 </i>
   <v>       0.00000000       0.00000000       0.00000000 </v>
   <v>       0.33333000       0.33333000       0.00000000 </v>
   <v>       0.50000000       0.00000000       0.00000000 </v>
   <v>       0.00000000       0.00000000       0.00000000 </v>
   <v>       0.00000000       0.00000000       0.50000000 </v>
   <v>       0.33333000       0.33333000       0.50000000 </v>
   <v>       0.50000000       0.00000000       0.50000000 </v>
   <v>       0.00000000       0.00000000       0.50000000 </v>
  </generation>
  <varray name="kpointlist" >
   <v>       0.00000000       0.00000000       0.00000000 </v>
   <v>       0.01149414       0.01149414       0.00000000 </v>
   <v>       0.02298828       0.02298828       0.00000000 </v>
   <v>       0.03448241       0.03448241       0.00000000 </v>
   <v>       0.04597655       0.04597655       0.00000000 </v>
   <v>       0.05747069       0.05747069       0.00000000 </v>
   <v>       0.06896483       0.06896483       0.00000000 </v>
   <v>       0.08045897       0.08045897       0.00000000 </v>
   <v>       0.09195310       0.09195310       0.00000000 </v>
   <v>       0.10344724       0.10344724       0.00000000 </v>
   <v>       0.11494138       0.11494138       0.00000000 </v>
   <v>       0.12643552       0.12643552       0.00000000 </v>
   <v>       0.13792966       0.13792966       0.00000000 </v>
   <v>       0.14942379       0.14942379       0.00000000 </v>
   <v>       0.16091793       0.16091793       0.00000000 </v>
   <v>       0.17241207       0.17241207       0.00000000 </v>
   <v>       0.18390621       0.18390621       0.00000000 </v>
   <v>       0.19540034       0.19540034       0.00000000 </v>
   <v>       0.20689448       0.20689448       0.00000000 </v>
   <v>       0.21838862       0.21838862       0.00000000 </v>
   <v>       0.22988276       0.22988276       0.00000000 </v>
   <v>       0.24137690       0.24137690       0.00000000 </v>
   <v>       0.25287103       0.25287103       0.00000000 </v>
   <v>       0.26436517       0.26436517       0.00000000 </v>
   <v>       0.27585931       0.27585931       0.00000000 </v>
   <v>       0.28735345       0.28735345       0.00000000 </v>
   <v>       0.29884759       0.29884759       0.00000000 </v>
   <v>       0.31034172       0.31034172       0.00000000 </v>
   <v>       0.32183586       0.32183586       0.00000000 </v>
   <v>       0.33333000       0.33333000       0.00000000 </v>
   <v>       0.33333000       0.33333000       0.00000000 </v>
   <v>       0.33907724       0.32183586       0.00000000 </v>
   <v>       0.34482448       0.31034172       0.00000000 </v>
   <v>       0.35057172       0.29884759       0.00000000 </v>
   <v>       0.35631897       0.28735345       0.00000000 </v>
   <v>       0.36206621       0.27585931       0.00000000 </v>
   <v>       0.36781345       0.26436517       0.00000000 </v>
   <v>       0.37356069       0.25287103       0.00000000 </v>
   <v>       0.37930793       0.24137690       0.00000000 </v>
   <v>       0.38505517       0.22988276       0.00000000 </v>
   <v>       0.39080241       0.21838862       0.00000000 </v>
   <v>       0.39654966       0.20689448       0.00000000 </v>
   <v>       0.40229690       0.19540034       0.00000000 </v>
   <v>       0.40804414       0.18390621       0.00000000 </v>
   <v>       0.41379138       0.17241207       0.00000000 </v>
   <v>       0.41953862       0.16091793       0.00000000 </v>
   <v>       0.42528586       0.14942379       0.00000000 </v>
   <v>       0.43103310       0.13792966       0.00000000 </v>
   <v>       0.43678034       0.12643552       0.00000000 </v>
   <v>       0.44252759       0.11494138       0.00000000 </v>
   <v>       0.44827483       0.10344724       0.00000000 </v>
   <v>       0.45402207       0.09195310       0.00000000 </v>
   <v>       0.45976931       0.08045897       0.00000000 </v>
   <v>       0.46551655       0.06896483       0.00000000 </v>
   <v>       0.47126379       0.05747069       0.00000000 </v>
   <v>       0.47701103       0.04597655       0.00000000 </v>
   <v>       0.48275828       0.03448241       0.00000000 </v>
   <v>       0.48850552       0.02298828       0.00000000 </v>
   <v>       0.49425276       0.01149414       0.00000000 </v>
   <v>       0.50000000       0.00000000       0.00000000 </v>
   <v>       0.50000000       0.00000000       0.00000000 </v>
   <v>       0.48275862       0.00000000       0.00000000 </v>
   <v>       0.46551724       0.00000000       0.00000000 </v>
   <v>       0.44827586       0.00000000       0.00000000 </v>
   <v>       0.43103448       0.00000000       0.00000000 </v>
   <v>       0.41379310       0.00000000       0.00000000 </v>
   <v>       0.39655172       0.00000000       0.00000000 </v>
   <v>       0.37931034       0.00000000       0.00000000 </v>
   <v>       0.36206897       0.00000000       0.00000000 </v>
   <v>       0.34482759       0.00000000       0.00000000 </v>
   <v>       0.32758621       0.00000000       0.00000000 </v>
   <v>       0.31034483       0.00000000       0.00000000 </v>
   <v>       0.29310345       0.00000000       0.00000000 </v>
   <v>       0.27586207       0.00000000       0.00000000 </v>
   <v>       0.25862069       0.00000000       0.00000000 </v>
   <v>       0.24137931       0.00000000       0.00000000 </v>
   <v>       0.22413793       0.00000000       0.00000000 </v>
   <v>       0.20689655       0.00000000       0.00000000 </v>
   <v>       0.18965517       0.00000000       0.00000000 </v>
   <v>       0.17241379       0.00000000       0.00000000 </v>
   <v>       0.15517241       0.00000000       0.00000000 </v>
   <v>       0.13793103       0.00000000       0.00000000 </v>
   <v>       0.12068966       0.00000000       0.00000000 </v>
   <v>       0.10344828       0.00000000       0.00000000 </v>
   <v>       0.08620690       0.00000000       0.00000000 </v>
   <v>       0.06896552       0.00000000       0.00000000 </v>
   <v>       0.05172414       0.00000000       0.00000000 </v>
   <v>       0.03448276       0.00000000       0.00000000 </v>
   <v>       0.01724138       0.00000000       0.00000000 </v>
   <v>       0.00000000       0.00000000       0.00000000 </v>
   <v>       0.00000000       0.00000000       0.00000000 </v>
   <v>       0.00000000       0.00000000       0.01724138 </v>
   <v>       0.00000000       0.00000000       0.03448276 </v>
   <v>       0.00000000       0.00000000       0.05172414 </v>
   <v>       0.00000000       0.00000000       0.06896552 </v>
   <v>       0.00000000       0.00000000       0.08620690 </v>
   <v>       0.00000000       0.00000000       0.10344828 </v>
   <v>       0.00000000       0.00000000       0.12068966 </v>
   <v>       0.00000000       0.00000000       0.13793103 </v>
   <v>       0.00000000       0.00000000       0.15517241 </v>
   <v>       0.00000000       0.00000000       0.17241379 </v>
   <v>       0.00000000       0.00000000       0.18965517 </v>
   <v>       0.00000000       0.00000000       0.20689655 </v>
   <v>       0.00000000       0.00000000       0.22413793 </v>
   <v>       0.00000000       0.00000000       0.24137931 </v>
   <v>       0.00000000       0.00000000       0.25862069 </v>
   <v>       0.00000000       0.00000000       0.27586207 </v>
   <v>       0.00000000       0.00000000       0.29310345 </v>
   <v>       0.00000000       0.00000000       0.31034483 </v>
   <v>       0.00000000       0.00000000       0.32758621 </v>
   <v>       0.00000000       0.00000000       0.34482759 </v>
   <v>       0.00000000       0.00000000       0.36206897 </v>
   <v>       0.00000000       0.00000000       0.37931034 </v>
   <v>       0.00000000       0.00000000       0.39655172 </v>
   <v>       0.00000000       0.00000000       0.41379310 </v>
   <v>       0.00000000       0.00000000       0.43103448 </v>
   <v>       0.00000000       0.00000000       0.44827586 </v>
   <v>       0.00000000       0.00000000       0.46551724 </v>
   <v>       0.00000000       0.00000000       0.48275862 </v>
   <v>       0.00000000       0.00000000       0.50000000 </v>
   <v>       0.00000000       0.00000000       0.50000000 </v>
   <v>       0.01149414       0.01149414       0.50000000 </v>
   <v>       0.02298828       0.02298828       0.50000000 </v>
   <v>       0.03448241       0.03448241       0.50000000 </v>
   <v>       0.04597655       0.04597655       0.50000000 </v>
   <v>       0.05747069       0.05747069       0.50000000 </v>
   <v>       0.06896483       0.06896483       0.50000000 </v>
   <v>       0.08045897       0.08045897       0.50000000 </v>
   <v>       0.09195310       0.09195310       0.50000000 </v>
   <v>       0.10344724       0.10344724       0.50000000 </v>
   <v>       0.11494138       0.11494138       0.50000000 </v>
   <v>       0.12643552       0.12643552       0.50000000 </v>
   <v>       0.13792966       0.13792966       0.50000000 </v>
   <v>       0.14942379       0.14942379       0.50000000 </v>
   <v>       0.16091793       0.16091793       0.50000000 </v>
   <v>       0.17241207       0.17241207       0.50000000 </v>
   <v>       0.18390621       0.18390621       0.50000000 </v>
   <v>       0.19540034       0.19540034       0.50000000 </v>
   <v>       0.20689448       0.20689448       0.50000000 </v>
   <v>       0.21838862       0.21838862       0.50000000 </v>
   <v>       0.22988276       0.22988276       0.50000000 </v>
   <v>       0.24137690       0.24137690       0.50000000 </v>
   <v>       0.25287103       0.25287103       0.50000000 </v>
   <v>       0.26436517       0.26436517       0.50000000 </v>
   <v>       0.27585931       0.27585931       0.50000000 </v>
   <v>       0.28735345       0.28735345       0.50000000 </v>
   <v>       0.29884759       0.29884759       0.50000000 </v>
   <v>       0.31034172       0.31034172       0.50000000 </v>
   <v>       0.32183586       0.32183586       0.50000000 </v>
   <v>       0.33333000       0.33333000       0.50000000 </v>
   <v>       0.33333000       0.33333000       0.50000000 </v>
   <v>       0.33907724       0.32183586       0.50000000 </v>
   <v>       0.34482448       0.31034172       0.50000000 </v>
   <v>       0.35057172       0.29884759       0.50000000 </v>
   <v>       0.35631897       0.28735345       0.50000000 </v>
   <v>       0.36206621       0.27585931       0.50000000 </v>
   <v>       0.36781345       0.26436517       0.50000000 </v>
   <v>       0.37356069       0.25287103       0.50000000 </v>
   <v>       0.37930793       0.24137690       0.50000000 </v>
   <v>       0.38505517       0.22988276       0.50000000 </v>
   <v>       0.39080241       0.21838862       0.50000000 </v>
   <v>       0.39654966       0.20689448       0.50000000 </v>
   <v>       0.40229690       0.19540034       0.50000000 </v>
   <v>       0.40804414       0.18390621       0.50000000 </v>
   <v>       0.41379138       0.17241207       0.50000000 </v>
   <v>       0.41953862       0.16091793       0.50000000 </v>
   <v>       0.42528586       0.14942379       0.50000000 </v>
   <v>       0.43103310       0.13792966       0.50000000 </v>
   <v>       0.43678034       0.12643552       0.50000000 </v>
   <v>       0.44252759       0.11494138       0.50000000 </v>
   <v>       0.44827483       0.10344724       0.50000000 </v>
   <v>       0.45402207       0.09195310       0.50000000 </v>
   <v>       0.45976931       0.08045897       0.50000000 </v>
   <v>       0.46551655       0.06896483       0.50000000 </v>
   <v>       0.47126379       0.05747069       0.50000000 </v>
   <v>       0.47701103       0.04597655       0.50000000 </v>
   <v>       0.48275828       0.03448241       0.50000000 </v>
   <v>       0.48850552       0.02298828       0.50000000 </v>
   <v>       0.49425276       0.01149414       0.50000000 </v>
   <v>       0.50000000       0.00000000       0.50000000 </v>
   <v>       0.50000000       0.00000000       0.50000000 </v>
   <v>       0.48275862       0.00000000       0.50000000 </v>
   <v>       0.46551724       0.00000000       0.50000000 </v>
   <v>       0.44827586       0.00000000       0.50000000 </v>
   <v>       0.43103448       0.00000000       0.50000000 </v>
   <v>       0.41379310       0.00000000       0.50000000 </v>
   <v>       0.39655172       0.00000000       0.50000000 </v>
   <v>       0.37931034       0.00000000       0.50000000 </v>
   <v>       0.36206897       0.00000000       0.50000000 </v>
   <v>       0.34482759       0.00000000       0.50000000 </v>
   <v>       0.32758621       0.00000000       0.50000000 </v>
   <v>       0.31034483       0.00000000       0.50000000 </v>
   <v>       0.29310345       0.00000000       0.50000000 </v>
   <v>       0.27586207       0.00000000       0.50000000 </v>
   <v>       0.25862069       0.00000000       0.50000000 </v>
   <v>       0.24137931       0.00000000       0.50000000 </v>
   <v>       0.22413793       0.00000000       0.50000000 </v>
   <v>       0.20689655       0.00000000       0.50000000 </v>
   <v>       0.18965517       0.00000000       0.50000000 </v>
   <v>       0.17241379       0.00000000       0.50000000 </v>
   <v>       0.15517241       0.00000000       0.50000000 </v>
   <v>       0.13793103       0.00000000       0.50000000 </v>
   <v>       0.12068966       0.00000000       0.50000000 </v>
   <v>       0.10344828       0.00000000       0.50000000 </v>
   <v>       0.08620690       0.00000000       0.50000000 </v>
   <v>       0.06896552       0.00000000       0.50000000 </v>
   <v>       0.05172414       0.00000000       0.50000000 </v>
   <v>       0.03448276       0.00000000       0.50000000 </v>
   <v>       0.01724138       0.00000000       0.50000000 </v>
   <v>       0.00000000       0.00000000       0.50000000 </v>
  </varray>
  <varray name="weights" >
   <v>       0.00476190 </v>
   <v>       0.00476190 </v>
   <v>       0.00476190 </v>
   <v>       0.00476190 </v>
   <v>       0.00476190 </v>
   <v>       0.00476190 </v>
   <v>       0.00476190 </v>
   <v>       0.00476190 </v>
   <v>       0.00476190 </v>
   <v>       0.00476190 </v>
   <v>       0.00476190 </v>
   <v>       0.00476190 </v>
   <v>       0.00476190 </v>
   <v>       0.00476190 </v>
   <v>       0.00476190 </v>
   <v>       0.00476190 </v>
   <v>       0.00476190 </v>
   <v>       0.00476190 </v>
   <v>       0.00476190 </v>
   <v>       0.00476190 </v>
   <v>       0.00476190 </v>
   <v>       0.00476190 </v>
   <v>       0.00476190 </v>
   <v>       0.00476190 </v>
   <v>       0.00476190 </v>
   <v>       0.00476190 </v>
   <v>       0.00476190 </v>
   <v>       0.00476190 </v>
   <v>       0.00476190 </v>
   <v>       0.00476190 </v>
   <v>       0.00476190 </v>
   <v>       0.00476190 </v>
   <v>       0.00476190 </v>
   <v>       0.00476190 </v>
   <v>       0.00476190 </v>
   <v>       0.00476190 </v>
   <v>       0.00476190 </v>
   <v>       0.00476190 </v>
   <v>       0.00476190 </v>
   <v>       0.00476190 </v>
   <v>       0.00476190 </v>
   <v>       0.00476190 </v>
   <v>       0.00476190 </v>
   <v>       0.00476190 </v>
   <v>       0.00476190 </v>
   <v>       0.00476190 </v>
   <v>       0.00476190 </v>
   <v>       0.00476190 </v>
   <v>       0.00476190 </v>
   <v>       0.00476190 </v>
   <v>       0.00476190 </v>
   <v>       0.00476190 </v>
   <v>       0.00476190 </v>
   <v>       0.00476190 </v>
   <v>       0.00476190 </v>
   <v>       0.00476190 </v>
   <v>       0.00476190 </v>
   <v>       0.00476190 </v>
   <v>       0.00476190 </v>
   <v>       0.00476190 </v>
   <v>       0.00476190 </v>
   <v>       0.00476190 </v>
   <v>       0.00476190 </v>
   <v>       0.00476190 </v>
   <v>       0.00476190 </v>
   <v>       0.00476190 </v>
   <v>       0.00476190 </v>
   <v>       0.00476190 </v>
   <v>       0.00476190 </v>
   <v>       0.00476190 </v>
   <v>       0.00476190 </v>
   <v>       0.00476190 </v>
   <v>       0.00476190 </v>
   <v>       0.00476190 </v>
   <v>       0.00476190 </v>
   <v>       0.00476190 </v>
   <v>       0.00476190 </v>
   <v>       0.00476190 </v>
   <v>       0.00476190 </v>
   <v>       0.00476190 </v>
   <v>       0.00476190 </v>
   <v>       0.00476190 </v>
   <v>       0.00476190 </v>
   <v>       0.00476190 </v>
   <v>       0.00476190 </v>
   <v>       0.00476190 </v>
   <v>       0.00476190 </v>
   <v>       0.00476190 </v>
   <v>       0.00476190 </v>
   <v>       0.00476190 </v>
   <v>       0.00476190 </v>
   <v>       0.00476190 </v>
   <v>       0.00476190 </v>
   <v>       0.00476190 </v>
   <v>       0.00476190 </v>
   <v>       0.00476190 </v>
   <v>       0.00476190 </v>
   <v>       0.00476190 </v>
   <v>       0.00476190 </v>
   <v>       0.00476190 </v>
   <v>       0.00476190 </v>
   <v>       0.00476190 </v>
   <v>       0.00476190 </v>
   <v>       0.00476190 </v>
   <v>       0.00476190 </v>
   <v>       0.00476190 </v>
   <v>       0.00476190 </v>
   <v>       0.00476190 </v>
   <v>       0.00476190 </v>
   <v>       0.00476190 </v>
   <v>       0.00476190 </v>
   <v>       0.00476190 </v>
   <v>       0.00476190 </v>
   <v>       0.00476190 </v>
   <v>       0.00476190 </v>
   <v>       0.00476190 </v>
   <v>       0.00476190 </v>
   <v>       0.00476190 </v>
   <v>       0.00476190 </v>
   <v>       0.00476190 </v>
   <v>       0.00476190 </v>
   <v>       0.00476190 </v>
   <v>       0.00476190 </v>
   <v>       0.00476190 </v>
   <v>       0.00476190 </v>
   <v>       0.00476190 </v>
   <v>       0.00476190 </v>
   <v>       0.00476190 </v>
   <v>       0.00476190 </v>
   <v>       0.00476190 </v>
   <v>       0.00476190 </v>
   <v>       0.00476190 </v>
   <v>       0.00476190 </v>
   <v>       0.00476190 </v>
   <v>       0.00476190 </v>
   <v>       0.00476190 </v>
   <v>       0.00476190 </v>
   <v>       0.00476190 </v>
   <v>       0.00476190 </v>
   <v>       0.00476190 </v>
   <v>       0.00476190 </v>
   <v>       0.00476190 </v>
   <v>       0.00476190 </v>
   <v>       0.00476190 </v>
   <v>       0.00476190 </v>
   <v>       0.00476190 </v>
   <v>       0.00476190 </v>
   <v>       0.00476190 </v>
   <v>       0.00476190 </v>
   <v>       0.00476190 </v>
   <v>       0.00476190 </v>
   <v>       0.00476190 </v>
   <v>       0.00476190 </v>
   <v>       0.00476190 </v>
   <v>       0.00476190 </v>
   <v>       0.00476190 </v>
   <v>       0.00476190 </v>
   <v>       0.00476190 </v>
   <v>       0.00476190 </v>
   <v>       0.00476190 </v>
   <v>       0.00476190 </v>
   <v>       0.00476190 </v>
   <v>       0.00476190 </v>
   <v>       0.00476190 </v>
   <v>       0.00476190 </v>
   <v>       0.00476190 </v>
   <v>       0.00476190 </v>
   <v>       0.00476190 </v>
   <v>       0.00476190 </v>
   <v>       0.00476190 </v>
   <v>       0.00476190 </v>
   <v>       0.00476190 </v>
   <v>       0.00476190 </v>
   <v>       0.00476190 </v>
   <v>       0.00476190 </v>
   <v>       0.00476190 </v>
   <v>       0.00476190 </v>
   <v>       0.00476190 </v>
   <v>       0.00476190 </v>
   <v>       0.00476190 </v>
   <v>       0.00476190 </v>
   <v>       0.00476190 </v>
   <v>       0.00476190 </v>
   <v>       0.00476190 </v>
   <v>       0.00476190 </v>
   <v>       0.00476190 </v>
   <v>       0.00476190 </v>
   <v>       0.00476190 </v>
   <v>       0.00476190 </v>
   <v>       0.00476190 </v>
   <v>       0.00476190 </v>
   <v>       0.00476190 </v>
   <v>       0.00476190 </v>
   <v>       0.00476190 </v>
   <v>       0.00476190 </v>
   <v>       0.00476190 </v>
   <v>       0.00476190 </v>
   <v>       0.00476190 </v>
   <v>       0.00476190 </v>
   <v>       0.00476190 </v>
   <v>       0.00476190 </v>
   <v>       0.00476190 </v>
   <v>       0.00476190 </v>
   <v>       0.00476190 </v>
   <v>       0.00476190 </v>
   <v>       0.00476190 </v>
   <v>       0.00476190 </v>
   <v>       0.00476190 </v>
   <v>       0.00476190 </v>
   <v>       0.00476190 </v>
  </varray>
 </kpoints>
 <parameters>
  <separator name="general" >
   <i type="string" name="SYSTEM">Te-a</i>
   <i type="logical" name="LCOMPAT"> F  </i>
  </separator>
  <separator name="electronic" >
   <i type="string" name="PREC">a</i>
   <i name="ENMAX">    500.00000000</i>
   <i name="ENAUG">    368.79200000</i>
   <i name="EDIFF">      0.00000001</i>
   <i type="int" name="IALGO">    38</i>
   <i type="int" name="IWAVPR">    10</i>
   <i type="int" name="NBANDS">    14</i>
   <i name="NELECT">     18.00000000</i>
   <i type="int" name="TURBO">     0</i>
   <i type="int" name="IRESTART">     0</i>
   <i type="int" name="NREBOOT">     0</i>
   <i type="int" name="NMIN">     0</i>
   <i name="EREF">      0.00000000</i>
   <separator name="electronic smearing" >
    <i type="int" name="ISMEAR">     0</i>
    <i name="SIGMA">      0.05000000</i>
    <i name="KSPACING">      0.50000000</i>
    <i type="logical" name="KGAMMA"> T  </i>
   </separator>
   <separator name="electronic projectors" >
    <i type="logical" name="LREAL"> F  </i>
    <v name="ROPT">      0.00000000</v>
    <i type="int" name="LMAXPAW">  -100</i>
    <i type="int" name="LMAXMIX">     2</i>
    <i type="logical" name="NLSPLINE"> F  </i>
   </separator>
   <separator name="electronic startup" >
    <i type="int" name="ISTART">     0</i>
    <i type="int" name="ICHARG">    11</i>
    <i type="int" name="INIWAV">     1</i>
   </separator>
   <separator name="electronic spin" >
    <i type="int" name="ISPIN">     1</i>
    <i type="logical" name="LNONCOLLINEAR"> F  </i>
    <v name="MAGMOM">      1.00000000      1.00000000      1.00000000</v>
    <i name="NUPDOWN">     -1.00000000</i>
    <i type="logical" name="LSORBIT"> F  </i>
    <v name="SAXIS">      0.00000000      0.00000000      1.00000000</v>
    <i type="logical" name="LSPIRAL"> F  </i>
    <v name="QSPIRAL">      0.00000000      0.00000000      0.00000000</v>
    <i type="logical" name="LZEROZ"> F  </i>
   </separator>
   <separator name="electronic exchange-correlation" >
    <i type="logical" name="LASPH"> T  </i>
    <i type="logical" name="LMETAGGA"> F  </i>
   </separator>
   <separator name="electronic convergence" >
    <i type="int" name="NELM">  2000</i>
    <i type="int" name="NELMDL">    -5</i>
    <i type="int" name="NELMIN">     5</i>
    <i name="ENINI">    500.00000000</i>
    <separator name="electronic convergence detail" >
     <i type="logical" name="LDIAG"> T  </i>
     <i type="logical" name="LSUBROT"> F  </i>
     <i name="WEIMIN">      0.00000000</i>
     <i name="EBREAK">      0.00000000</i>
     <i name="DEPER">      0.30000000</i>
     <i type="int" name="NRMM">     4</i>
     <i name="TIME">      0.40000000</i>
    </separator>
   </separator>
   <separator name="electronic mixer" >
    <i name="AMIX">      0.40000000</i>
    <i name="BMIX">      1.00000000</i>
    <i name="AMIN">      0.10000000</i>
    <i name="AMIX_MAG">      1.60000000</i>
    <i name="BMIX_MAG">      1.00000000</i>
    <separator name="electronic mixer details" >
     <i type="int" name="IMIX">     4</i>
     <i type="logical" name="MIXFIRST"> F  </i>
     <i type="int" name="MAXMIX">   -45</i>
     <i name="WC">    100.00000000</i>
     <i type="int" name="INIMIX">     1</i>
     <i type="int" name="MIXPRE">     1</i>
     <i type="int" name="MREMOVE">     5</i>
    </separator>
   </separator>
   <separator name="electronic dipolcorrection" >
    <i type="logical" name="LDIPOL"> F  </i>
    <i type="logical" name="LMONO"> F  </i>
    <i type="int" name="IDIPOL">     0</i>
    <i name="EPSILON">      1.00000000</i>
    <v name="DIPOL">   -100.00000000   -100.00000000   -100.00000000</v>
    <i name="EFIELD">      0.00000000</i>
   </separator>
  </separator>
  <separator name="grids" >
   <i type="int" name="NGX">    36</i>
   <i type="int" name="NGY">    36</i>
   <i type="int" name="NGZ">    48</i>
   <i type="int" name="NGXF">    72</i>
   <i type="int" name="NGYF">    72</i>
   <i type="int" name="NGZF">    96</i>
   <i type="logical" name="ADDGRID"> F  </i>
  </separator>
  <separator name="ionic" >
   <i type="int" name="NSW">     0</i>
   <i type="int" name="IBRION">    -1</i>
   <i type="int" name="MDALGO">     0</i>
   <i type="int" name="ISIF">     2</i>
   <i name="PSTRESS">      0.00000000</i>
   <i name="EDIFFG">     -0.00100000</i>
   <i type="int" name="NFREE">     0</i>
   <i name="POTIM">      0.50000000</i>
   <i name="SMASS">     -3.00000000</i>
   <i name="SCALEE">      1.00000000</i>
  </separator>
  <separator name="ionic md" >
   <i name="TEBEG">      0.00010000</i>
   <i name="TEEND">      0.00010000</i>
   <i type="int" name="NBLOCK">     1</i>
   <i type="int" name="KBLOCK">     1</i>
   <i type="int" name="NPACO">   256</i>
   <i name="APACO">     16.00000000</i>
  </separator>
  <separator name="symmetry" >
   <i type="int" name="ISYM">    -1</i>
   <i name="SYMPREC">      0.00001000</i>
  </separator>
  <separator name="dos" >
   <i type="int" name="LORBIT">    11</i>
   <v name="RWIGS">     -1.00000000</v>
   <i type="int" name="NEDOS">  3000</i>
   <i name="EMIN">    -15.00000000</i>
   <i name="EMAX">     15.00000000</i>
   <i name="EFERMI">      0.00000000</i>
  </separator>
  <separator name="writing" >
   <i type="int" name="NWRITE">     1</i>
   <i type="logical" name="LWAVE"> F  </i>
   <i type="logical" name="LDOWNSAMPLE"> F  </i>
   <i type="logical" name="LCHARG"> F  </i>
   <i type="logical" name="LPARD"> F  </i>
   <i type="logical" name="LVTOT"> F  </i>
   <i type="logical" name="LVHAR"> F  </i>
   <i type="logical" name="LELF"> F  </i>
   <i type="logical" name="LOPTICS"> F  </i>
   <v name="STM">      0.00000000      0.00000000      0.00000000      0.00000000      0.00000000      0.00000000      0.00000000</v>
  </separator>
  <separator name="performance" >
   <i type="int" name="NPAR">     2</i>
   <i type="int" name="NSIM">     4</i>
   <i type="int" name="NBLK">    -1</i>
   <i type="logical" name="LPLANE"> T  </i>
   <i type="logical" name="LSCALAPACK"> T  </i>
   <i type="logical" name="LSCAAWARE"> F  </i>
   <i type="logical" name="LSCALU"> F  </i>
   <i type="logical" name="LASYNC"> F  </i>
   <i type="logical" name="LORBITALREAL"> F  </i>
  </separator>
  <separator name="miscellaneous" >
   <i type="int" name="IDIOT">     3</i>
   <i type="int" name="ISPECIAL">     0</i>
   <i type="logical" name="LMUSIC"> F  </i>
   <v name="POMASS">    127.60000000</v>
   <v name="DARWINR">      0.00000000</v>
   <v name="DARWINV">      1.00000000</v>
   <i type="logical" name="LCORR"> T  </i>
  </separator>
  <i type="logical" name="GGA_COMPAT"> F  </i>
  <i type="logical" name="LBERRY"> F  </i>
  <i type="int" name="ICORELEVEL">     0</i>
  <i type="logical" name="LDAU"> F  </i>
  <i type="int" name="I_CONSTRAINED_M">     0</i>
  <separator name="electronic exchange-correlation" >
   <i type="string" name="GGA">--</i>
   <i type="int" name="VOSKOWN">     0</i>
   <i type="logical" name="LHFCALC"> F  </i>
   <i type="string" name="PRECFOCK"></i>
   <i type="logical" name="LSYMGRAD"> F  </i>
   <i type="logical" name="LHFONE"> F  </i>
   <i type="logical" name="LRHFCALC"> F  </i>
   <i type="logical" name="LTHOMAS"> F  </i>
   <i type="logical" name="LMODELHF"> F  </i>
   <i name="ENCUT4O">     -1.00000000</i>
   <i type="int" name="EXXOEP">     0</i>
   <i type="int" name="FOURORBIT">     0</i>
   <i name="AEXX">      0.00000000</i>
   <i name="HFALPHA">      0.00000000</i>
   <i name="MCALPHA">      0.00000000</i>
   <i name="ALDAX">      1.00000000</i>
   <i name="AGGAX">      1.00000000</i>
   <i name="ALDAC">      1.00000000</i>
   <i name="AGGAC">      1.00000000</i>
   <i type="int" name="NKREDX">     1</i>
   <i type="int" name="NKREDY">     1</i>
   <i type="int" name="NKREDZ">     1</i>
   <i type="logical" name="SHIFTRED"> F  </i>
   <i type="logical" name="ODDONLY"> F  </i>
   <i type="logical" name="EVENONLY"> F  </i>
   <i type="int" name="LMAXFOCK">     0</i>
   <i type="int" name="NMAXFOCKAE">     0</i>
   <i type="logical" name="LFOCKAEDFT"> F  </i>
   <i name="HFSCREEN">      0.00000000</i>
   <i name="HFSCREENC">      0.00000000</i>
   <i type="int" name="NBANDSGWLOW">     0</i>
  </separator>
  <separator name="vdW DFT" >
   <i type="logical" name="LUSE_VDW"> F  </i>
   <i name="Zab_VDW">     -0.84910000</i>
   <i name="PARAM1">      0.12340000</i>
   <i name="PARAM2">      1.00000000</i>
   <i name="PARAM3">      0.00000000</i>
  </separator>
  <separator name="model GW" >
   <i type="int" name="MODEL_GW">     0</i>
   <i name="MODEL_EPS0">     21.05360451</i>
   <i name="MODEL_ALPHA">      1.00000000</i>
  </separator>
  <separator name="linear response parameters" >
   <i type="logical" name="LEPSILON"> F  </i>
   <i type="logical" name="LRPA"> F  </i>
   <i type="logical" name="LNABLA"> F  </i>
   <i type="logical" name="LVEL"> F  </i>
   <i type="int" name="KINTER">     0</i>
   <i name="CSHIFT">      0.10000000</i>
   <i name="OMEGAMAX">     -1.00000000</i>
   <i name="DEG_THRESHOLD">      0.00200000</i>
   <i name="RTIME">     -0.10000000</i>
   <i name="WPLASMAI">      0.00000000</i>
   <v name="DFIELD">      0.00000000      0.00000000      0.00000000</v>
   <v name="WPLASMA">      0.00000000      0.00000000      0.00000000      0.00000000      0.00000000      0.00000000      0.00000000      0.00000000      0.00000000</v>
  </separator>
  <separator name="orbital magnetization" >
   <i type="logical" name="NUCIND"> F  </i>
   <v name="MAGPOS">      0.00000000      0.00000000      0.00000000</v>
   <i type="logical" name="LNICSALL"> T  </i>
   <i type="logical" name="ORBITALMAG"> F  </i>
   <i type="logical" name="LMAGBLOCH"> F  </i>
   <i type="logical" name="LCHIMAG"> F  </i>
   <i type="logical" name="LGAUGE"> T  </i>
   <i type="int" name="MAGATOM">     0</i>
   <v name="MAGDIPOL">      0.00000000      0.00000000      0.00000000</v>
   <v name="AVECCONST">      0.00000000      0.00000000      0.00000000</v>
  </separator>
  <separator name="response functions" >
   <i type="logical" name="LADDER"> F  </i>
   <i type="logical" name="LRPAFORCE"> F  </i>
   <i type="logical" name="LFXC"> F  </i>
   <i type="logical" name="LHARTREE"> T  </i>
   <i type="int" name="IBSE">     0</i>
   <v type="int" name="KPOINT">    -1     0     0     0</v>
   <i type="logical" name="LTCTE"> F  </i>
   <i type="logical" name="LTETE"> F  </i>
   <i type="logical" name="LTRIPLET"> F  </i>
   <i type="logical" name="LFXCEPS"> F  </i>
   <i type="logical" name="LFXHEG"> F  </i>
   <i type="int" name="NATURALO">     2</i>
   <i type="logical" name="L2ORDER"> F  </i>
   <i type="logical" name="LMP2LT"> F  </i>
   <i type="logical" name="LUSEW"> F  </i>
   <i name="ENCUTGW">     -2.00000000</i>
   <i name="ENCUTGWSOFT">     -2.00000000</i>
   <i name="ENCUTLF">     -1.00000000</i>
   <i type="int" name="LMAXMP2">    -1</i>
   <i name="SCISSOR">      0.00000000</i>
   <i type="int" name="NOMEGA">     0</i>
   <i type="int" name="NOMEGAR">     0</i>
   <i type="int" name="NBANDSGW">    -1</i>
   <i type="int" name="NBANDSO">    -1</i>
   <i type="int" name="NBANDSV">    -1</i>
   <i type="int" name="NELM">  2000</i>
   <i type="int" name="NELMHF">     1</i>
   <i type="int" name="DIM">     3</i>
   <i type="int" name="ANTIRES">     0</i>
   <i name="OMEGAMAX">    -30.00000000</i>
   <i name="OMEGAMIN">    -30.00000000</i>
   <i name="OMEGATL">   -200.00000000</i>
   <i type="int" name="OMEGAGRID">   140</i>
   <i name="CSHIFT">     -0.10000000</i>
   <i type="logical" name="SELFENERGY"> F  </i>
   <i type="logical" name="LSPECTRAL"> F  </i>
   <i type="logical" name="LSPECTRALGW"> F  </i>
   <i type="logical" name="LSINGLES"> F  </i>
   <i type="logical" name="LFERMIGW"> F  </i>
   <i type="logical" name="ODDONLYGW"> F  </i>
   <i type="logical" name="EVENONLYGW"> F  </i>
   <i type="int" name="NKREDLFX">     1</i>
   <i type="int" name="NKREDLFY">     1</i>
   <i type="int" name="NKREDLFZ">     1</i>
   <i type="int" name="MAXMEM">  2800</i>
   <i type="int" name="TELESCOPE">     0</i>
   <i type="int" name="TAUPAR">     1</i>
   <i type="int" name="OMEGAPAR">    -1</i>
   <i name="LAMBDA">      1.00000000</i>
  </separator>
  <separator name="External order field" >
   <i name="OFIELD_KAPPA">      0.00000000</i>
   <v name="OFIELD_K">      0.00000000      0.00000000      0.00000000</v>
   <i name="OFIELD_Q6_NEAR">      0.00000000</i>
   <i name="OFIELD_Q6_FAR">      0.00000000</i>
   <i name="OFIELD_A">      0.00000000</i>
  </separator>
 </parameters>
 <atominfo>
  <atoms>       3 </atoms>
  <types>       1 </types>
  <array name="atoms" >
   <dimension dim="1">ion</dimension>
   <field type="string">element</field>
   <field type="int">atomtype</field>
   <set>
    <rc><c>Te</c><c>   1</c></rc>
    <rc><c>Te</c><c>   1</c></rc>
    <rc><c>Te</c><c>   1</c></rc>
   </set>
  </array>
  <array name="atomtypes" >
   <dimension dim="1">type</dimension>
   <field type="int">atomspertype</field>
   <field type="string">element</field>
   <field>mass</field>
   <field>valence</field>
   <field type="string">pseudopotential</field>
   <set>
    <rc><c>   3</c><c>Te</c><c>    127.60000000</c><c>      6.00000000</c><c>  PAW_PBE Te 08Apr2002                  </c></rc>
   </set>
  </array>
 </atominfo>
 <structure name="initialpos" >
  <crystal>
   <varray name="basis" >
    <v>       2.25932030      -3.91325756      -0.00000000 </v>
    <v>       2.25932030       3.91325756       0.00000000 </v>
    <v>      -0.00000000       0.00000000       5.95319668 </v>
   </varray>
   <i name="volume">    105.26802254 </i>
   <varray name="rec_basis" >
    <v>       0.22130550      -0.12777079       0.00000000 </v>
    <v>       0.22130550       0.12777079       0.00000000 </v>
    <v>       0.00000000      -0.00000000       0.16797698 </v>
   </varray>
  </crystal>
  <varray name="positions" >
   <v>       0.26862376       0.00000000       0.16666667 </v>
   <v>       0.00000000       0.26862376       0.83333333 </v>
   <v>       0.73137624       0.73137624       0.50000000 </v>
  </varray>
  <varray name="selective"  type="logical" >
   <v type="logical" >  T  T  T </v>
   <v type="logical" >  T  T  T </v>
   <v type="logical" >  T  T  T </v>
  </varray>
  <nose>
   <v>      -3.00000000       0.00000000       0.00010000       0.00010000 </v>
  </nose>
 </structure>
 <calculation>
  <scstep>
   <time name="dav">   15.00   16.07</time>
   <time name="total">   15.48   16.59</time>
   <energy>
    <i name="alphaZ">      2.22054736 </i>
    <i name="ewald">   -667.17188197 </i>
    <i name="hartreedc">    -45.62390208 </i>
    <i name="XCdc">    -84.15211815 </i>
    <i name="pawpsdc">   1473.16534982 </i>
    <i name="pawaedc">  -1357.78338394 </i>
    <i name="eentropy">     -0.00163624 </i>
    <i name="bandstr">     87.64795043 </i>
    <i name="atom">    669.81418755 </i>
    <i name="e_fr_energy">     78.11511278 </i>
    <i name="e_wo_entrp">     78.11674902 </i>
    <i name="e_0_energy">     78.11593090 </i>
   </energy>
  </scstep>
  <scstep>
   <time name="dav">   19.06   20.98</time>
   <time name="total">   19.07   21.01</time>
   <energy>
    <i name="e_fr_energy">     -2.61322318 </i>
    <i name="e_wo_entrp">     -2.61293411 </i>
    <i name="e_0_energy">     -2.61307864 </i>
   </energy>
  </scstep>
  <scstep>
   <time name="dav">   18.35   21.75</time>
   <time name="total">   18.36   21.75</time>
   <energy>
    <i name="e_fr_energy">     -7.75460993 </i>
    <i name="e_wo_entrp">     -7.75459644 </i>
    <i name="e_0_energy">     -7.75460319 </i>
   </energy>
  </scstep>
  <scstep>
   <time name="dav">   18.60   19.85</time>
   <time name="total">   18.61   19.86</time>
   <energy>
    <i name="e_fr_energy">     -7.85005931 </i>
    <i name="e_wo_entrp">     -7.85004276 </i>
    <i name="e_0_energy">     -7.85005103 </i>
   </energy>
  </scstep>
  <scstep>
   <time name="dav">   17.62   20.06</time>
   <time name="total">   17.63   20.07</time>
   <energy>
    <i name="e_fr_energy">     -7.85167452 </i>
    <i name="e_wo_entrp">     -7.85165796 </i>
    <i name="e_0_energy">     -7.85166624 </i>
   </energy>
  </scstep>
  <scstep>
   <time name="dav">   19.92   21.97</time>
   <time name="total">   19.92   21.97</time>
   <energy>
    <i name="e_fr_energy">     -7.85175305 </i>
    <i name="e_wo_entrp">     -7.85173649 </i>
    <i name="e_0_energy">     -7.85174477 </i>
   </energy>
  </scstep>
  <scstep>
   <time name="dav">   17.89   19.86</time>
   <time name="total">   17.90   19.87</time>
   <energy>
    <i name="e_fr_energy">     -7.85175356 </i>
    <i name="e_wo_entrp">     -7.85173700 </i>
    <i name="e_0_energy">     -7.85174528 </i>
   </energy>
  </scstep>
  <scstep>
   <time name="dav">   17.12   18.07</time>
   <time name="total">   17.13   18.08</time>
   <energy>
    <i name="e_fr_energy">     -7.85175358 </i>
    <i name="e_wo_entrp">     -7.85173702 </i>
    <i name="e_0_energy">     -7.85174530 </i>
   </energy>
  </scstep>
  <scstep>
   <time name="dav">   13.12   13.39</time>
   <time name="total">   13.13   13.40</time>
   <energy>
    <i name="alphaZ">      2.22054736 </i>
    <i name="ewald">   -667.17188197 </i>
    <i name="hartreedc">    -45.62390208 </i>
    <i name="XCdc">    -84.15211815 </i>
    <i name="pawpsdc">   1473.16534982 </i>
    <i name="pawaedc">  -1357.78338394 </i>
    <i name="eentropy">     -0.00001656 </i>
    <i name="bandstr">      1.67946438 </i>
    <i name="atom">    669.81418755 </i>
    <i name="e_fr_energy">     -7.85175358 </i>
    <i name="e_wo_entrp">     -7.85173702 </i>
    <i name="e_0_energy">     -7.85174530 </i>
   </energy>
  </scstep>
  <structure>
   <crystal>
    <varray name="basis" >
     <v>       2.25932030      -3.91325756      -0.00000000 </v>
     <v>       2.25932030       3.91325756       0.00000000 </v>
     <v>      -0.00000000       0.00000000       5.95319668 </v>
    </varray>
    <i name="volume">    105.26802254 </i>
    <varray name="rec_basis" >
     <v>       0.22130550      -0.12777079       0.00000000 </v>
     <v>       0.22130550       0.12777079       0.00000000 </v>
     <v>       0.00000000      -0.00000000       0.16797698 </v>
    </varray>
   </crystal>
   <varray name="positions" >
    <v>       0.26862376       0.00000000       0.16666667 </v>
    <v>       0.00000000       0.26862376       0.83333333 </v>
    <v>       0.73137624       0.73137624       0.50000000 </v>
   </varray>
  </structure>
  <varray name="forces" >
   <v>      -0.27852243       0.32229008      -0.09537843 </v>
   <v>      -0.12809255      -0.23572560       0.11582002 </v>
   <v>       0.40661498      -0.08656448      -0.02044159 </v>
  </varray>
  <varray name="stress" >
   <v>      31.10402544      64.65972611      -8.97568489 </v>
   <v>      64.65972591     141.41210055       7.15097680 </v>
   <v>      -8.97569288       7.15098301      -1.38722007 </v>
  </varray>
  <energy>
   <i name="e_fr_energy">     -7.85175358 </i>
   <i name="e_wo_entrp">     -7.85174530 </i>
   <i name="e_0_energy">     -0.00001656 </i>
  </energy>
  <time name="totalsc">  169.91  185.95</time>
  <eigenvalues>
   <array>
    <dimension dim="1">band</dimension>
    <dimension dim="2">kpoint</dimension>
    <dimension dim="3">spin</dimension>
    <field>eigene</field>
    <field>occ</field>
    <set>
     <set comment="spin 1">
      <set comment="kpoint 1">
       <r>   -7.8437    1.0000 </r>
       <r>   -4.6768    1.0000 </r>
       <r>   -4.6768    1.0000 </r>
       <r>    2.5546    1.0000 </r>
       <r>    2.8181    1.0000 </r>
       <r>    2.8181    1.0000 </r>
       <r>    3.9154    1.0000 </r>
       <r>    3.9154    1.0000 </r>
       <r>    4.7261    1.0000 </r>
       <r>    6.5248    0.0000 </r>
       <r>    6.5248    0.0000 </r>
       <r>    7.0787    0.0000 </r>
       <r>   10.5773    0.0000 </r>
       <r>   10.5773    0.0000 </r>
      </set>
      <set comment="kpoint 2">
       <r>   -7.8411    1.0000 </r>
       <r>   -4.6776    1.0000 </r>
       <r>   -4.6762    1.0000 </r>
       <r>    2.5279    1.0000 </r>
       <r>    2.7958    1.0000 </r>
       <r>    2.8150    1.0000 </r>
       <r>    3.9255    1.0000 </r>
       <r>    3.9475    1.0000 </r>
       <r>    4.7334    1.0000 </r>
       <r>    6.5127    0.0000 </r>
       <r>    6.5226    0.0000 </r>
       <r>    7.0733    0.0000 </r>
       <r>   10.5733    0.0000 </r>
       <r>   10.5745    0.0000 </r>
      </set>
      <set comment="kpoint 3">
       <r>   -7.8335    1.0000 </r>
       <r>   -4.6800    1.0000 </r>
       <r>   -4.6745    1.0000 </r>
       <r>    2.4532    1.0000 </r>
       <r>    2.7330    1.0000 </r>
       <r>    2.8082    1.0000 </r>
       <r>    3.9515    1.0000 </r>
       <r>    4.0351    1.0000 </r>
       <r>    4.7546    1.0000 </r>
       <r>    6.4776    0.0000 </r>
       <r>    6.5158    0.0000 </r>
       <r>    7.0583    0.0000 </r>
       <r>   10.5603    0.0000 </r>
       <r>   10.5647    0.0000 </r>
      </set>
      <set comment="kpoint 4">
       <r>   -7.8208    1.0000 </r>
       <r>   -4.6841    1.0000 </r>
       <r>   -4.6718    1.0000 </r>
       <r>    2.3444    1.0000 </r>
       <r>    2.6396    1.0000 </r>
       <r>    2.8008    1.0000 </r>
       <r>    3.9837    1.0000 </r>
       <r>    4.1601    1.0000 </r>
       <r>    4.7879    1.0000 </r>
       <r>    6.4233    0.0000 </r>
       <r>    6.5046    0.0000 </r>
       <r>    7.0376    0.0000 </r>
       <r>   10.5363    0.0000 </r>
       <r>   10.5449    0.0000 </r>
      </set>
      <set comment="kpoint 5">
       <r>   -7.8030    1.0000 </r>
       <r>   -4.6900    1.0000 </r>
       <r>   -4.6682    1.0000 </r>
       <r>    2.2161    1.0000 </r>
       <r>    2.5259    1.0000 </r>
       <r>    2.7931    1.0000 </r>
       <r>    4.0131    1.0000 </r>
       <r>    4.3043    1.0000 </r>
       <r>    4.8288    1.0000 </r>
       <r>    6.3557    0.0000 </r>
       <r>    6.4899    0.0000 </r>
       <r>    7.0163    0.0000 </r>
       <r>   10.4991    0.0000 </r>
       <r>   10.5123    0.0000 </r>
      </set>
      <set comment="kpoint 6">
       <r>   -7.7803    1.0000 </r>
       <r>   -4.6978    1.0000 </r>
       <r>   -4.6638    1.0000 </r>
       <r>    2.0796    1.0000 </r>
       <r>    2.4002    1.0000 </r>
       <r>    2.7847    1.0000 </r>
       <r>    4.0341    1.0000 </r>
       <r>    4.4522    1.0000 </r>
       <r>    4.8700    1.0000 </r>
       <r>    6.2834    0.0000 </r>
       <r>    6.4749    0.0000 </r>
       <r>    6.9997    0.0000 </r>
       <r>   10.4481    0.0000 </r>
       <r>   10.4669    0.0000 </r>
      </set>
      <set comment="kpoint 7">
       <r>   -7.7528    1.0000 </r>
       <r>   -4.7077    1.0000 </r>
       <r>   -4.6589    1.0000 </r>
       <r>    1.9418    1.0000 </r>
       <r>    2.2685    1.0000 </r>
       <r>    2.7750    1.0000 </r>
       <r>    4.0445    1.0000 </r>
       <r>    4.5895    1.0000 </r>
       <r>    4.9019    1.0000 </r>
       <r>    6.2178    0.0000 </r>
       <r>    6.4655    0.0000 </r>
       <r>    6.9913    0.0000 </r>
       <r>   10.3845    0.0000 </r>
       <r>   10.4113    0.0000 </r>
      </set>
      <set comment="kpoint 8">
       <r>   -7.7206    1.0000 </r>
       <r>   -4.7198    1.0000 </r>
       <r>   -4.6539    1.0000 </r>
       <r>    1.8074    1.0000 </r>
       <r>    2.1353    1.0000 </r>
       <r>    2.7635    1.0000 </r>
       <r>    4.0440    1.0000 </r>
       <r>    4.7004    1.0000 </r>
       <r>    4.9143    1.0000 </r>
       <r>    6.1734    0.0000 </r>
       <r>    6.4693    0.0000 </r>
       <r>    6.9930    0.0000 </r>
       <r>   10.3116    0.0000 </r>
       <r>   10.3500    0.0000 </r>
      </set>
      <set comment="kpoint 9">
       <r>   -7.6838    1.0000 </r>
       <r>   -4.7343    1.0000 </r>
       <r>   -4.6489    1.0000 </r>
       <r>    1.6797    1.0000 </r>
       <r>    2.0038    1.0000 </r>
       <r>    2.7501    1.0000 </r>
       <r>    4.0334    1.0000 </r>
       <r>    4.7691    1.0000 </r>
       <r>    4.8995    1.0000 </r>
       <r>    6.1663    0.0000 </r>
       <r>    6.4932    0.0000 </r>
       <r>    7.0051    0.0000 </r>
       <r>   10.2337    0.0000 </r>
       <r>   10.2876    0.0000 </r>
      </set>
      <set comment="kpoint 10">
       <r>   -7.6425    1.0000 </r>
       <r>   -4.7513    1.0000 </r>
       <r>   -4.6444    1.0000 </r>
       <r>    1.5607    1.0000 </r>
       <r>    1.8764    1.0000 </r>
       <r>    2.7343    1.0000 </r>
       <r>    4.0132    1.0000 </r>
       <r>    4.7848    1.0000 </r>
       <r>    4.8546    1.0000 </r>
       <r>    6.2075    0.0000 </r>
       <r>    6.5403    0.0000 </r>
       <r>    7.0274    0.0000 </r>
       <r>   10.1549    0.0000 </r>
       <r>   10.2283    0.0000 </r>
      </set>
      <set comment="kpoint 11">
       <r>   -7.5972    1.0000 </r>
       <r>   -4.7709    1.0000 </r>
       <r>   -4.6407    1.0000 </r>
       <r>    1.4521    1.0000 </r>
       <r>    1.7552    1.0000 </r>
       <r>    2.7159    1.0000 </r>
       <r>    3.9840    1.0000 </r>
       <r>    4.7489    1.0000 </r>
       <r>    4.7813    1.0000 </r>
       <r>    6.2960    0.0000 </r>
       <r>    6.6092    0.0000 </r>
       <r>    7.0598    0.0000 </r>
       <r>   10.0792    0.0000 </r>
       <r>   10.1755    0.0000 </r>
      </set>
      <set comment="kpoint 12">
       <r>   -7.5479    1.0000 </r>
       <r>   -4.7932    1.0000 </r>
       <r>   -4.6383    1.0000 </r>
       <r>    1.3549    1.0000 </r>
       <r>    1.6417    1.0000 </r>
       <r>    2.6948    1.0000 </r>
       <r>    3.9463    1.0000 </r>
       <r>    4.6724    1.0000 </r>
       <r>    4.6849    1.0000 </r>
       <r>    6.4211    0.0000 </r>
       <r>    6.6949    0.0000 </r>
       <r>    7.1026    0.0000 </r>
       <r>   10.0095    0.0000 </r>
       <r>   10.1316    0.0000 </r>
      </set>
      <set comment="kpoint 13">
       <r>   -7.4950    1.0000 </r>
       <r>   -4.8182    1.0000 </r>
       <r>   -4.6375    1.0000 </r>
       <r>    1.2701    1.0000 </r>
       <r>    1.5372    1.0000 </r>
       <r>    2.6710    1.0000 </r>
       <r>    3.9002    1.0000 </r>
       <r>    4.5686    1.0000 </r>
       <r>    4.5715    1.0000 </r>
       <r>    6.5695    0.0000 </r>
       <r>    6.7912    0.0000 </r>
       <r>    7.1566    0.0000 </r>
       <r>    9.9483    0.0000 </r>
       <r>   10.0984    0.0000 </r>
      </set>
      <set comment="kpoint 14">
       <r>   -7.4389    1.0000 </r>
       <r>   -4.8456    1.0000 </r>
       <r>   -4.6388    1.0000 </r>
       <r>    1.1980    1.0000 </r>
       <r>    1.4429    1.0000 </r>
       <r>    2.6444    1.0000 </r>
       <r>    3.8457    1.0000 </r>
       <r>    4.4473    1.0000 </r>
       <r>    4.4485    1.0000 </r>
       <r>    6.7306    0.0000 </r>
       <r>    6.8915    0.0000 </r>
       <r>    7.2232    0.0000 </r>
       <r>    9.8977    0.0000 </r>
       <r>   10.0769    0.0000 </r>
      </set>
      <set comment="kpoint 15">
       <r>   -7.3800    1.0000 </r>
       <r>   -4.8753    1.0000 </r>
       <r>   -4.6425    1.0000 </r>
       <r>    1.1391    1.0000 </r>
       <r>    1.3595    1.0000 </r>
       <r>    2.6151    1.0000 </r>
       <r>    3.7827    1.0000 </r>
       <r>    4.3172    1.0000 </r>
       <r>    4.3193    1.0000 </r>
       <r>    6.8967    0.0000 </r>
       <r>    6.9904    0.0000 </r>
       <r>    7.3039    0.0000 </r>
       <r>    9.8588    0.0000 </r>
       <r>   10.0681    0.0000 </r>
      </set>
      <set comment="kpoint 16">
       <r>   -7.3187    1.0000 </r>
       <r>   -4.9069    1.0000 </r>
       <r>   -4.6490    1.0000 </r>
       <r>    1.0934    1.0000 </r>
       <r>    1.2878    1.0000 </r>
       <r>    2.5835    1.0000 </r>
       <r>    3.7110    1.0000 </r>
       <r>    4.1857    1.0000 </r>
       <r>    4.1860    1.0000 </r>
       <r>    7.0631    0.0000 </r>
       <r>    7.0848    0.0000 </r>
       <r>    7.3986    0.0000 </r>
       <r>    9.8328    0.0000 </r>
       <r>   10.0722    0.0000 </r>
      </set>
      <set comment="kpoint 17">
       <r>   -7.2558    1.0000 </r>
       <r>   -4.9398    1.0000 </r>
       <r>   -4.6586    1.0000 </r>
       <r>    1.0607    1.0000 </r>
       <r>    1.2283    1.0000 </r>
       <r>    2.5500    1.0000 </r>
       <r>    3.6304    1.0000 </r>
       <r>    4.0519    1.0000 </r>
       <r>    4.0565    1.0000 </r>
       <r>    7.1742    0.0000 </r>
       <r>    7.2261    0.0000 </r>
       <r>    7.5052    0.0000 </r>
       <r>    9.8200    0.0000 </r>
       <r>   10.0894    0.0000 </r>
      </set>
      <set comment="kpoint 18">
       <r>   -7.1917    1.0000 </r>
       <r>   -4.9734    1.0000 </r>
       <r>   -4.6714    1.0000 </r>
       <r>    1.0404    1.0000 </r>
       <r>    1.1812    1.0000 </r>
       <r>    2.5154    1.0000 </r>
       <r>    3.5409    1.0000 </r>
       <r>    3.9191    1.0000 </r>
       <r>    3.9324    1.0000 </r>
       <r>    7.2604    0.0000 </r>
       <r>    7.3836    0.0000 </r>
       <r>    7.6199    0.0000 </r>
       <r>    9.8207    0.0000 </r>
       <r>   10.1196    0.0000 </r>
      </set>
      <set comment="kpoint 19">
       <r>   -7.1274    1.0000 </r>
       <r>   -5.0069    1.0000 </r>
       <r>   -4.6877    1.0000 </r>
       <r>    1.0320    1.0000 </r>
       <r>    1.1465    1.0000 </r>
       <r>    2.4806    1.0000 </r>
       <r>    3.4435    1.0000 </r>
       <r>    3.7891    1.0000 </r>
       <r>    3.8152    1.0000 </r>
       <r>    7.3454    0.0000 </r>
       <r>    7.5338    0.0000 </r>
       <r>    7.7388    0.0000 </r>
       <r>    9.8346    0.0000 </r>
       <r>   10.1625    0.0000 </r>
      </set>
      <set comment="kpoint 20">
       <r>   -7.0636    1.0000 </r>
       <r>   -5.0392    1.0000 </r>
       <r>   -4.7075    1.0000 </r>
       <r>    1.0344    1.0000 </r>
       <r>    1.1240    1.0000 </r>
       <r>    2.4468    1.0000 </r>
       <r>    3.3399    1.0000 </r>
       <r>    3.6629    1.0000 </r>
       <r>    3.7056    1.0000 </r>
       <r>    7.4308    0.0000 </r>
       <r>    7.6754    0.0000 </r>
       <r>    7.8585    0.0000 </r>
       <r>    9.8609    0.0000 </r>
       <r>   10.2177    0.0000 </r>
      </set>
      <set comment="kpoint 21">
       <r>   -7.0015    1.0000 </r>
       <r>   -5.0693    1.0000 </r>
       <r>   -4.7308    1.0000 </r>
       <r>    1.0462    1.0000 </r>
       <r>    1.1131    1.0000 </r>
       <r>    2.4158    1.0000 </r>
       <r>    3.2331    1.0000 </r>
       <r>    3.5412    1.0000 </r>
       <r>    3.6031    1.0000 </r>
       <r>    7.5173    0.0000 </r>
       <r>    7.8076    0.0000 </r>
       <r>    7.9763    0.0000 </r>
       <r>    9.8986    0.0000 </r>
       <r>   10.2850    0.0000 </r>
      </set>
      <set comment="kpoint 22">
       <r>   -6.9422    1.0000 </r>
       <r>   -5.0958    1.0000 </r>
       <r>   -4.7573    1.0000 </r>
       <r>    1.0657    1.0000 </r>
       <r>    1.1130    1.0000 </r>
       <r>    2.3893    1.0000 </r>
       <r>    3.1264    1.0000 </r>
       <r>    3.4244    1.0000 </r>
       <r>    3.5067    1.0000 </r>
       <r>    7.6055    0.0000 </r>
       <r>    7.9293    0.0000 </r>
       <r>    8.0898    0.0000 </r>
       <r>    9.9464    0.0000 </r>
       <r>   10.3636    0.0000 </r>
      </set>
      <set comment="kpoint 23">
       <r>   -6.8870    1.0000 </r>
       <r>   -5.1175    1.0000 </r>
       <r>   -4.7869    1.0000 </r>
       <r>    1.0910    1.0000 </r>
       <r>    1.1222    1.0000 </r>
       <r>    2.3699    1.0000 </r>
       <r>    3.0231    1.0000 </r>
       <r>    3.3126    1.0000 </r>
       <r>    3.4156    1.0000 </r>
       <r>    7.6952    0.0000 </r>
       <r>    8.0394    0.0000 </r>
       <r>    8.1966    0.0000 </r>
       <r>   10.0025    0.0000 </r>
       <r>   10.4533    0.0000 </r>
      </set>
      <set comment="kpoint 24">
       <r>   -6.8370    1.0000 </r>
       <r>   -5.1329    1.0000 </r>
       <r>   -4.8192    1.0000 </r>
       <r>    1.1194    1.0000 </r>
       <r>    1.1389    1.0000 </r>
       <r>    2.3602    1.0000 </r>
       <r>    2.9266    1.0000 </r>
       <r>    3.2060    1.0000 </r>
       <r>    3.3295    1.0000 </r>
       <r>    7.7861    0.0000 </r>
       <r>    8.1365    0.0000 </r>
       <r>    8.2945    0.0000 </r>
       <r>   10.0651    0.0000 </r>
       <r>   10.5535    0.0000 </r>
      </set>
      <set comment="kpoint 25">
       <r>   -6.7936    1.0000 </r>
       <r>   -5.1408    1.0000 </r>
       <r>   -4.8539    1.0000 </r>
       <r>    1.1486    1.0000 </r>
       <r>    1.1607    1.0000 </r>
       <r>    2.3629    1.0000 </r>
       <r>    2.8396    1.0000 </r>
       <r>    3.1046    1.0000 </r>
       <r>    3.2485    1.0000 </r>
       <r>    7.8778    0.0000 </r>
       <r>    8.2185    0.0000 </r>
       <r>    8.3809    0.0000 </r>
       <r>   10.1320    0.0000 </r>
       <r>   10.6636    0.0000 </r>
      </set>
      <set comment="kpoint 26">
       <r>   -6.7576    1.0000 </r>
       <r>   -5.1402    1.0000 </r>
       <r>   -4.8906    1.0000 </r>
       <r>    1.1758    1.0000 </r>
       <r>    1.1847    1.0000 </r>
       <r>    2.3808    1.0000 </r>
       <r>    2.7647    1.0000 </r>
       <r>    3.0085    1.0000 </r>
       <r>    3.1735    1.0000 </r>
       <r>    7.9694    0.0000 </r>
       <r>    8.2829    0.0000 </r>
       <r>    8.4534    0.0000 </r>
       <r>   10.2011    0.0000 </r>
       <r>   10.7833    0.0000 </r>
      </set>
      <set comment="kpoint 27">
       <r>   -6.7298    1.0000 </r>
       <r>   -5.1304    1.0000 </r>
       <r>   -4.9288    1.0000 </r>
       <r>    1.1989    1.0000 </r>
       <r>    1.2075    1.0000 </r>
       <r>    2.4158    1.0000 </r>
       <r>    2.7040    1.0000 </r>
       <r>    2.9178    1.0000 </r>
       <r>    3.1064    1.0000 </r>
       <r>    8.0597    0.0000 </r>
       <r>    8.3264    0.0000 </r>
       <r>    8.5094    0.0000 </r>
       <r>   10.2696    0.0000 </r>
       <r>   10.9120    0.0000 </r>
      </set>
      <set comment="kpoint 28">
       <r>   -6.7106    1.0000 </r>
       <r>   -5.1114    1.0000 </r>
       <r>   -4.9680    1.0000 </r>
       <r>    1.2166    1.0000 </r>
       <r>    1.2256    1.0000 </r>
       <r>    2.4687    1.0000 </r>
       <r>    2.6578    1.0000 </r>
       <r>    2.8333    1.0000 </r>
       <r>    3.0504    1.0000 </r>
       <r>    8.1472    0.0000 </r>
       <r>    8.3453    0.0000 </r>
       <r>    8.5467    0.0000 </r>
       <r>   10.3334    0.0000 </r>
       <r>   11.0494    0.0000 </r>
      </set>
      <set comment="kpoint 29">
       <r>   -6.6995    1.0000 </r>
       <r>   -5.0834    1.0000 </r>
       <r>   -5.0077    1.0000 </r>
       <r>    1.2287    1.0000 </r>
       <r>    1.2357    1.0000 </r>
       <r>    2.5367    1.0000 </r>
       <r>    2.6240    1.0000 </r>
       <r>    2.7577    1.0000 </r>
       <r>    3.0110    1.0000 </r>
       <r>    8.2285    0.0000 </r>
       <r>    8.3361    0.0000 </r>
       <r>    8.5649    0.0000 </r>
       <r>   10.3846    0.0000 </r>
       <r>   11.1951    0.0000 </r>
      </set>
      <set comment="kpoint 30">
       <r>   -6.6960    1.0000 </r>
       <r>   -5.0475    1.0000 </r>
       <r>   -5.0474    1.0000 </r>
       <r>    1.2359    1.0000 </r>
       <r>    1.2359    1.0000 </r>
       <r>    2.5967    1.0000 </r>
       <r>    2.5967    1.0000 </r>
       <r>    2.7132    1.0000 </r>
       <r>    2.9959    1.0000 </r>
       <r>    8.2961    0.0000 </r>
       <r>    8.2962    0.0000 </r>
       <r>    8.5683    0.0000 </r>
       <r>   10.4071    0.0000 </r>
       <r>   11.3490    0.0000 </r>
      </set>
      <set comment="kpoint 31">
       <r>   -6.6960    1.0000 </r>
       <r>   -5.0475    1.0000 </r>
       <r>   -5.0474    1.0000 </r>
       <r>    1.2359    1.0000 </r>
       <r>    1.2359    1.0000 </r>
       <r>    2.5967    1.0000 </r>
       <r>    2.5967    1.0000 </r>
       <r>    2.7132    1.0000 </r>
       <r>    2.9959    1.0000 </r>
       <r>    8.2961    0.0000 </r>
       <r>    8.2962    0.0000 </r>
       <r>    8.5683    0.0000 </r>
       <r>   10.4071    0.0000 </r>
       <r>   11.3490    0.0000 </r>
      </set>
      <set comment="kpoint 32">
       <r>   -6.6968    1.0000 </r>
       <r>   -5.0672    1.0000 </r>
       <r>   -5.0268    1.0000 </r>
       <r>    1.2321    1.0000 </r>
       <r>    1.2380    1.0000 </r>
       <r>    2.5831    1.0000 </r>
       <r>    2.5948    1.0000 </r>
       <r>    2.7311    1.0000 </r>
       <r>    3.0001    1.0000 </r>
       <r>    8.2643    0.0000 </r>
       <r>    8.3195    0.0000 </r>
       <r>    8.5689    0.0000 </r>
       <r>   10.3997    0.0000 </r>
       <r>   11.2805    0.0000 </r>
      </set>
      <set comment="kpoint 33">
       <r>   -6.6991    1.0000 </r>
       <r>   -5.0867    1.0000 </r>
       <r>   -5.0047    1.0000 </r>
       <r>    1.2257    1.0000 </r>
       <r>    1.2394    1.0000 </r>
       <r>    2.5685    1.0000 </r>
       <r>    2.5725    1.0000 </r>
       <r>    2.7744    1.0000 </r>
       <r>    3.0131    1.0000 </r>
       <r>    8.2246    0.0000 </r>
       <r>    8.3310    0.0000 </r>
       <r>    8.5733    0.0000 </r>
       <r>   10.3755    0.0000 </r>
       <r>   11.2346    0.0000 </r>
      </set>
      <set comment="kpoint 34">
       <r>   -6.7028    1.0000 </r>
       <r>   -5.1060    1.0000 </r>
       <r>   -4.9814    1.0000 </r>
       <r>    1.2169    1.0000 </r>
       <r>    1.2401    1.0000 </r>
       <r>    2.5435    1.0000 </r>
       <r>    2.5525    1.0000 </r>
       <r>    2.8293    1.0000 </r>
       <r>    3.0349    1.0000 </r>
       <r>    8.1773    0.0000 </r>
       <r>    8.3273    0.0000 </r>
       <r>    8.5850    0.0000 </r>
       <r>   10.3334    0.0000 </r>
       <r>   11.2125    0.0000 </r>
      </set>
      <set comment="kpoint 35">
       <r>   -6.7076    1.0000 </r>
       <r>   -5.1251    1.0000 </r>
       <r>   -4.9569    1.0000 </r>
       <r>    1.2061    1.0000 </r>
       <r>    1.2406    1.0000 </r>
       <r>    2.5129    1.0000 </r>
       <r>    2.5350    1.0000 </r>
       <r>    2.8904    1.0000 </r>
       <r>    3.0655    1.0000 </r>
       <r>    8.1228    0.0000 </r>
       <r>    8.3076    0.0000 </r>
       <r>    8.6044    0.0000 </r>
       <r>   10.2748    0.0000 </r>
       <r>   11.2127    0.0000 </r>
      </set>
      <set comment="kpoint 36">
       <r>   -6.7134    1.0000 </r>
       <r>   -5.1438    1.0000 </r>
       <r>   -4.9316    1.0000 </r>
       <r>    1.1933    1.0000 </r>
       <r>    1.2408    1.0000 </r>
       <r>    2.4823    1.0000 </r>
       <r>    2.5161    1.0000 </r>
       <r>    2.9559    1.0000 </r>
       <r>    3.1042    1.0000 </r>
       <r>    8.0617    0.0000 </r>
       <r>    8.2736    0.0000 </r>
       <r>    8.6301    0.0000 </r>
       <r>   10.2032    0.0000 </r>
       <r>   11.2316    0.0000 </r>
      </set>
      <set comment="kpoint 37">
       <r>   -6.7202    1.0000 </r>
       <r>   -5.1621    1.0000 </r>
       <r>   -4.9056    1.0000 </r>
       <r>    1.1791    1.0000 </r>
       <r>    1.2409    1.0000 </r>
       <r>    2.4521    1.0000 </r>
       <r>    2.4963    1.0000 </r>
       <r>    3.0250    1.0000 </r>
       <r>    3.1505    1.0000 </r>
       <r>    7.9944    0.0000 </r>
       <r>    8.2280    0.0000 </r>
       <r>    8.6595    0.0000 </r>
       <r>   10.1222    0.0000 </r>
       <r>   11.2655    0.0000 </r>
      </set>
      <set comment="kpoint 38">
       <r>   -6.7276    1.0000 </r>
       <r>   -5.1800    1.0000 </r>
       <r>   -4.8792    1.0000 </r>
       <r>    1.1635    1.0000 </r>
       <r>    1.2411    1.0000 </r>
       <r>    2.4227    1.0000 </r>
       <r>    2.4759    1.0000 </r>
       <r>    3.0970    1.0000 </r>
       <r>    3.2035    1.0000 </r>
       <r>    7.9218    0.0000 </r>
       <r>    8.1726    0.0000 </r>
       <r>    8.6909    0.0000 </r>
       <r>   10.0350    0.0000 </r>
       <r>   11.3109    0.0000 </r>
      </set>
      <set comment="kpoint 39">
       <r>   -6.7356    1.0000 </r>
       <r>   -5.1974    1.0000 </r>
       <r>   -4.8525    1.0000 </r>
       <r>    1.1470    1.0000 </r>
       <r>    1.2415    1.0000 </r>
       <r>    2.3942    1.0000 </r>
       <r>    2.4551    1.0000 </r>
       <r>    3.1716    1.0000 </r>
       <r>    3.2626    1.0000 </r>
       <r>    7.8445    0.0000 </r>
       <r>    8.1090    0.0000 </r>
       <r>    8.7230    0.0000 </r>
       <r>    9.9439    0.0000 </r>
       <r>   11.3653    0.0000 </r>
      </set>
      <set comment="kpoint 40">
       <r>   -6.7440    1.0000 </r>
       <r>   -5.2143    1.0000 </r>
       <r>   -4.8257    1.0000 </r>
       <r>    1.1299    1.0000 </r>
       <r>    1.2422    1.0000 </r>
       <r>    2.3668    1.0000 </r>
       <r>    2.4344    1.0000 </r>
       <r>    3.2484    1.0000 </r>
       <r>    3.3271    1.0000 </r>
       <r>    7.7633    0.0000 </r>
       <r>    8.0384    0.0000 </r>
       <r>    8.7552    0.0000 </r>
       <r>    9.8507    0.0000 </r>
       <r>   11.4267    0.0000 </r>
      </set>
      <set comment="kpoint 41">
       <r>   -6.7527    1.0000 </r>
       <r>   -5.2306    1.0000 </r>
       <r>   -4.7991    1.0000 </r>
       <r>    1.1123    1.0000 </r>
       <r>    1.2432    1.0000 </r>
       <r>    2.3404    1.0000 </r>
       <r>    2.4138    1.0000 </r>
       <r>    3.3271    1.0000 </r>
       <r>    3.3964    1.0000 </r>
       <r>    7.6789    0.0000 </r>
       <r>    7.9615    0.0000 </r>
       <r>    8.7870    0.0000 </r>
       <r>    9.7567    0.0000 </r>
       <r>   11.4939    0.0000 </r>
      </set>
      <set comment="kpoint 42">
       <r>   -6.7616    1.0000 </r>
       <r>   -5.2463    1.0000 </r>
       <r>   -4.7727    1.0000 </r>
       <r>    1.0946    1.0000 </r>
       <r>    1.2446    1.0000 </r>
       <r>    2.3151    1.0000 </r>
       <r>    2.3936    1.0000 </r>
       <r>    3.4074    1.0000 </r>
       <r>    3.4699    1.0000 </r>
       <r>    7.5921    0.0000 </r>
       <r>    7.8791    0.0000 </r>
       <r>    8.8179    0.0000 </r>
       <r>    9.6627    0.0000 </r>
       <r>   11.5657    0.0000 </r>
      </set>
      <set comment="kpoint 43">
       <r>   -6.7706    1.0000 </r>
       <r>   -5.2614    1.0000 </r>
       <r>   -4.7469    1.0000 </r>
       <r>    1.0769    1.0000 </r>
       <r>    1.2464    1.0000 </r>
       <r>    2.2909    1.0000 </r>
       <r>    2.3741    1.0000 </r>
       <r>    3.4890    1.0000 </r>
       <r>    3.5471    1.0000 </r>
       <r>    7.5035    0.0000 </r>
       <r>    7.7921    0.0000 </r>
       <r>    8.8479    0.0000 </r>
       <r>    9.5695    0.0000 </r>
       <r>   11.6414    0.0000 </r>
      </set>
      <set comment="kpoint 44">
       <r>   -6.7796    1.0000 </r>
       <r>   -5.2758    1.0000 </r>
       <r>   -4.7217    1.0000 </r>
       <r>    1.0595    1.0000 </r>
       <r>    1.2487    1.0000 </r>
       <r>    2.2678    1.0000 </r>
       <r>    2.3552    1.0000 </r>
       <r>    3.5715    1.0000 </r>
       <r>    3.6275    1.0000 </r>
       <r>    7.4138    0.0000 </r>
       <r>    7.7011    0.0000 </r>
       <r>    8.8766    0.0000 </r>
       <r>    9.4777    0.0000 </r>
       <r>   11.7202    0.0000 </r>
      </set>
      <set comment="kpoint 45">
       <r>   -6.7884    1.0000 </r>
       <r>   -5.2895    1.0000 </r>
       <r>   -4.6973    1.0000 </r>
       <r>    1.0424    1.0000 </r>
       <r>    1.2513    1.0000 </r>
       <r>    2.2460    1.0000 </r>
       <r>    2.3371    1.0000 </r>
       <r>    3.6546    1.0000 </r>
       <r>    3.7106    1.0000 </r>
       <r>    7.3237    0.0000 </r>
       <r>    7.6067    0.0000 </r>
       <r>    8.9041    0.0000 </r>
       <r>    9.3878    0.0000 </r>
       <r>   11.8016    0.0000 </r>
      </set>
      <set comment="kpoint 46">
       <r>   -6.7970    1.0000 </r>
       <r>   -5.3024    1.0000 </r>
       <r>   -4.6738    1.0000 </r>
       <r>    1.0260    1.0000 </r>
       <r>    1.2544    1.0000 </r>
       <r>    2.2253    1.0000 </r>
       <r>    2.3199    1.0000 </r>
       <r>    3.7379    1.0000 </r>
       <r>    3.7959    1.0000 </r>
       <r>    7.2338    0.0000 </r>
       <r>    7.5098    0.0000 </r>
       <r>    8.9300    0.0000 </r>
       <r>    9.3005    0.0000 </r>
       <r>   11.8850    0.0000 </r>
      </set>
      <set comment="kpoint 47">
       <r>   -6.8053    1.0000 </r>
       <r>   -5.3146    1.0000 </r>
       <r>   -4.6514    1.0000 </r>
       <r>    1.0102    1.0000 </r>
       <r>    1.2578    1.0000 </r>
       <r>    2.2059    1.0000 </r>
       <r>    2.3036    1.0000 </r>
       <r>    3.8210    1.0000 </r>
       <r>    3.8830    1.0000 </r>
       <r>    7.1446    0.0000 </r>
       <r>    7.4109    0.0000 </r>
       <r>    8.9545    0.0000 </r>
       <r>    9.2162    0.0000 </r>
       <r>   11.9698    0.0000 </r>
      </set>
      <set comment="kpoint 48">
       <r>   -6.8133    1.0000 </r>
       <r>   -5.3260    1.0000 </r>
       <r>   -4.6301    1.0000 </r>
       <r>    0.9952    1.0000 </r>
       <r>    1.2614    1.0000 </r>
       <r>    2.1877    1.0000 </r>
       <r>    2.2884    1.0000 </r>
       <r>    3.9035    1.0000 </r>
       <r>    3.9712    1.0000 </r>
       <r>    7.0567    0.0000 </r>
       <r>    7.3108    0.0000 </r>
       <r>    8.9773    0.0000 </r>
       <r>    9.1355    0.0000 </r>
       <r>   12.0555    0.0000 </r>
      </set>
      <set comment="kpoint 49">
       <r>   -6.8208    1.0000 </r>
       <r>   -5.3365    1.0000 </r>
       <r>   -4.6102    1.0000 </r>
       <r>    0.9811    1.0000 </r>
       <r>    1.2652    1.0000 </r>
       <r>    2.1707    1.0000 </r>
       <r>    2.2743    1.0000 </r>
       <r>    3.9848    1.0000 </r>
       <r>    4.0600    1.0000 </r>
       <r>    6.9707    0.0000 </r>
       <r>    7.2103    0.0000 </r>
       <r>    8.9985    0.0000 </r>
       <r>    9.0588    0.0000 </r>
       <r>   12.1415    0.0000 </r>
      </set>
      <set comment="kpoint 50">
       <r>   -6.8279    1.0000 </r>
       <r>   -5.3462    1.0000 </r>
       <r>   -4.5917    1.0000 </r>
       <r>    0.9680    1.0000 </r>
       <r>    1.2692    1.0000 </r>
       <r>    2.1551    1.0000 </r>
       <r>    2.2613    1.0000 </r>
       <r>    4.0644    1.0000 </r>
       <r>    4.1488    1.0000 </r>
       <r>    6.8872    0.0000 </r>
       <r>    7.1103    0.0000 </r>
       <r>    8.9867    0.0000 </r>
       <r>    9.0180    0.0000 </r>
       <r>   12.2270    0.0000 </r>
      </set>
      <set comment="kpoint 51">
       <r>   -6.8344    1.0000 </r>
       <r>   -5.3551    1.0000 </r>
       <r>   -4.5746    1.0000 </r>
       <r>    0.9559    1.0000 </r>
       <r>    1.2732    1.0000 </r>
       <r>    2.1409    1.0000 </r>
       <r>    2.2494    1.0000 </r>
       <r>    4.1415    1.0000 </r>
       <r>    4.2366    1.0000 </r>
       <r>    6.8070    0.0000 </r>
       <r>    7.0118    0.0000 </r>
       <r>    8.9196    0.0000 </r>
       <r>    9.0358    0.0000 </r>
       <r>   12.3112    0.0000 </r>
      </set>
      <set comment="kpoint 52">
       <r>   -6.8403    1.0000 </r>
       <r>   -5.3630    1.0000 </r>
       <r>   -4.5591    1.0000 </r>
       <r>    0.9450    1.0000 </r>
       <r>    1.2772    1.0000 </r>
       <r>    2.1280    1.0000 </r>
       <r>    2.2387    1.0000 </r>
       <r>    4.2153    1.0000 </r>
       <r>    4.3226    1.0000 </r>
       <r>    6.7307    0.0000 </r>
       <r>    6.9157    0.0000 </r>
       <r>    8.8580    0.0000 </r>
       <r>    9.0517    0.0000 </r>
       <r>   12.3932    0.0000 </r>
      </set>
      <set comment="kpoint 53">
       <r>   -6.8457    1.0000 </r>
       <r>   -5.3701    1.0000 </r>
       <r>   -4.5453    1.0000 </r>
       <r>    0.9352    1.0000 </r>
       <r>    1.2809    1.0000 </r>
       <r>    2.1165    1.0000 </r>
       <r>    2.2292    1.0000 </r>
       <r>    4.2849    1.0000 </r>
       <r>    4.4057    1.0000 </r>
       <r>    6.6592    0.0000 </r>
       <r>    6.8235    0.0000 </r>
       <r>    8.8025    0.0000 </r>
       <r>    9.0659    0.0000 </r>
       <r>   12.4719    0.0000 </r>
      </set>
      <set comment="kpoint 54">
       <r>   -6.8504    1.0000 </r>
       <r>   -5.3762    1.0000 </r>
       <r>   -4.5331    1.0000 </r>
       <r>    0.9266    1.0000 </r>
       <r>    1.2844    1.0000 </r>
       <r>    2.1064    1.0000 </r>
       <r>    2.2210    1.0000 </r>
       <r>    4.3493    1.0000 </r>
       <r>    4.4843    1.0000 </r>
       <r>    6.5935    0.0000 </r>
       <r>    6.7366    0.0000 </r>
       <r>    8.7533    0.0000 </r>
       <r>    9.0782    0.0000 </r>
       <r>   12.5458    0.0000 </r>
      </set>
      <set comment="kpoint 55">
       <r>   -6.8544    1.0000 </r>
       <r>   -5.3815    1.0000 </r>
       <r>   -4.5228    1.0000 </r>
       <r>    0.9193    1.0000 </r>
       <r>    1.2876    1.0000 </r>
       <r>    2.0979    1.0000 </r>
       <r>    2.2139    1.0000 </r>
       <r>    4.4072    1.0000 </r>
       <r>    4.5569    1.0000 </r>
       <r>    6.5347    0.0000 </r>
       <r>    6.6569    0.0000 </r>
       <r>    8.7110    0.0000 </r>
       <r>    9.0886    0.0000 </r>
       <r>   12.6135    0.0000 </r>
      </set>
      <set comment="kpoint 56">
       <r>   -6.8577    1.0000 </r>
       <r>   -5.3858    1.0000 </r>
       <r>   -4.5142    1.0000 </r>
       <r>    0.9133    1.0000 </r>
       <r>    1.2903    1.0000 </r>
       <r>    2.0908    1.0000 </r>
       <r>    2.2082    1.0000 </r>
       <r>    4.4573    1.0000 </r>
       <r>    4.6213    1.0000 </r>
       <r>    6.4841    0.0000 </r>
       <r>    6.5866    0.0000 </r>
       <r>    8.6759    0.0000 </r>
       <r>    9.0972    0.0000 </r>
       <r>   12.6730    0.0000 </r>
      </set>
      <set comment="kpoint 57">
       <r>   -6.8603    1.0000 </r>
       <r>   -5.3891    1.0000 </r>
       <r>   -4.5076    1.0000 </r>
       <r>    0.9086    1.0000 </r>
       <r>    1.2925    1.0000 </r>
       <r>    2.0853    1.0000 </r>
       <r>    2.2037    1.0000 </r>
       <r>    4.4982    1.0000 </r>
       <r>    4.6753    1.0000 </r>
       <r>    6.4428    0.0000 </r>
       <r>    6.5280    0.0000 </r>
       <r>    8.6482    0.0000 </r>
       <r>    9.1039    0.0000 </r>
       <r>   12.7224    0.0000 </r>
      </set>
      <set comment="kpoint 58">
       <r>   -6.8622    1.0000 </r>
       <r>   -5.3915    1.0000 </r>
       <r>   -4.5028    1.0000 </r>
       <r>    0.9053    1.0000 </r>
       <r>    1.2941    1.0000 </r>
       <r>    2.0813    1.0000 </r>
       <r>    2.2005    1.0000 </r>
       <r>    4.5286    1.0000 </r>
       <r>    4.7162    1.0000 </r>
       <r>    6.4123    0.0000 </r>
       <r>    6.4836    0.0000 </r>
       <r>    8.6283    0.0000 </r>
       <r>    9.1086    0.0000 </r>
       <r>   12.7596    0.0000 </r>
      </set>
      <set comment="kpoint 59">
       <r>   -6.8633    1.0000 </r>
       <r>   -5.3929    1.0000 </r>
       <r>   -4.4999    1.0000 </r>
       <r>    0.9032    1.0000 </r>
       <r>    1.2951    1.0000 </r>
       <r>    2.0789    1.0000 </r>
       <r>    2.1985    1.0000 </r>
       <r>    4.5474    1.0000 </r>
       <r>    4.7419    1.0000 </r>
       <r>    6.3934    0.0000 </r>
       <r>    6.4558    0.0000 </r>
       <r>    8.6162    0.0000 </r>
       <r>    9.1115    0.0000 </r>
       <r>   12.7827    0.0000 </r>
      </set>
      <set comment="kpoint 60">
       <r>   -6.8637    1.0000 </r>
       <r>   -5.3934    1.0000 </r>
       <r>   -4.4989    1.0000 </r>
       <r>    0.9026    1.0000 </r>
       <r>    1.2955    1.0000 </r>
       <r>    2.0781    1.0000 </r>
       <r>    2.1979    1.0000 </r>
       <r>    4.5538    1.0000 </r>
       <r>    4.7507    1.0000 </r>
       <r>    6.3871    0.0000 </r>
       <r>    6.4464    0.0000 </r>
       <r>    8.6122    0.0000 </r>
       <r>    9.1125    0.0000 </r>
       <r>   12.7906    0.0000 </r>
      </set>
      <set comment="kpoint 61">
       <r>   -6.8637    1.0000 </r>
       <r>   -5.3934    1.0000 </r>
       <r>   -4.4989    1.0000 </r>
       <r>    0.9026    1.0000 </r>
       <r>    1.2955    1.0000 </r>
       <r>    2.0781    1.0000 </r>
       <r>    2.1979    1.0000 </r>
       <r>    4.5538    1.0000 </r>
       <r>    4.7507    1.0000 </r>
       <r>    6.3871    0.0000 </r>
       <r>    6.4464    0.0000 </r>
       <r>    8.6122    0.0000 </r>
       <r>    9.1125    0.0000 </r>
       <r>   12.7906    0.0000 </r>
      </set>
      <set comment="kpoint 62">
       <r>   -6.8689    1.0000 </r>
       <r>   -5.3884    1.0000 </r>
       <r>   -4.4995    1.0000 </r>
       <r>    0.9015    1.0000 </r>
       <r>    1.2964    1.0000 </r>
       <r>    2.0581    1.0000 </r>
       <r>    2.2318    1.0000 </r>
       <r>    4.5547    1.0000 </r>
       <r>    4.7508    1.0000 </r>
       <r>    6.3869    0.0000 </r>
       <r>    6.4475    0.0000 </r>
       <r>    8.6163    0.0000 </r>
       <r>    9.1008    0.0000 </r>
       <r>   12.7590    0.0000 </r>
      </set>
      <set comment="kpoint 63">
       <r>   -6.8841    1.0000 </r>
       <r>   -5.3737    1.0000 </r>
       <r>   -4.5014    1.0000 </r>
       <r>    0.8985    1.0000 </r>
       <r>    1.2997    1.0000 </r>
       <r>    2.0264    1.0000 </r>
       <r>    2.3049    1.0000 </r>
       <r>    4.5576    1.0000 </r>
       <r>    4.7511    1.0000 </r>
       <r>    6.3864    0.0000 </r>
       <r>    6.4506    0.0000 </r>
       <r>    8.6285    0.0000 </r>
       <r>    9.0660    0.0000 </r>
       <r>   12.6714    0.0000 </r>
      </set>
      <set comment="kpoint 64">
       <r>   -6.9086    1.0000 </r>
       <r>   -5.3501    1.0000 </r>
       <r>   -4.5043    1.0000 </r>
       <r>    0.8939    1.0000 </r>
       <r>    1.3063    1.0000 </r>
       <r>    2.0016    1.0000 </r>
       <r>    2.3972    1.0000 </r>
       <r>    4.5622    1.0000 </r>
       <r>    4.7515    1.0000 </r>
       <r>    6.3857    0.0000 </r>
       <r>    6.4558    0.0000 </r>
       <r>    8.6489    0.0000 </r>
       <r>    9.0089    0.0000 </r>
       <r>   12.5438    0.0000 </r>
      </set>
      <set comment="kpoint 65">
       <r>   -6.9412    1.0000 </r>
       <r>   -5.3189    1.0000 </r>
       <r>   -4.5084    1.0000 </r>
       <r>    0.8884    1.0000 </r>
       <r>    1.3175    1.0000 </r>
       <r>    1.9867    1.0000 </r>
       <r>    2.5034    1.0000 </r>
       <r>    4.5682    1.0000 </r>
       <r>    4.7521    1.0000 </r>
       <r>    6.3848    0.0000 </r>
       <r>    6.4628    0.0000 </r>
       <r>    8.6773    0.0000 </r>
       <r>    8.9307    0.0000 </r>
       <r>   12.3916    0.0000 </r>
      </set>
      <set comment="kpoint 66">
       <r>   -6.9804    1.0000 </r>
       <r>   -5.2817    1.0000 </r>
       <r>   -4.5136    1.0000 </r>
       <r>    0.8833    1.0000 </r>
       <r>    1.3341    1.0000 </r>
       <r>    1.9815    1.0000 </r>
       <r>    2.6214    1.0000 </r>
       <r>    4.5753    1.0000 </r>
       <r>    4.7527    1.0000 </r>
       <r>    6.3837    0.0000 </r>
       <r>    6.4715    0.0000 </r>
       <r>    8.7136    0.0000 </r>
       <r>    8.8332    0.0000 </r>
       <r>   12.2264    0.0000 </r>
      </set>
      <set comment="kpoint 67">
       <r>   -7.0249    1.0000 </r>
       <r>   -5.2399    1.0000 </r>
       <r>   -4.5197    1.0000 </r>
       <r>    0.8799    1.0000 </r>
       <r>    1.3569    1.0000 </r>
       <r>    1.9852    1.0000 </r>
       <r>    2.7496    1.0000 </r>
       <r>    4.5830    1.0000 </r>
       <r>    4.7534    1.0000 </r>
       <r>    6.3826    0.0000 </r>
       <r>    6.4816    0.0000 </r>
       <r>    8.7156    0.0000 </r>
       <r>    8.7603    0.0000 </r>
       <r>   12.0560    0.0000 </r>
      </set>
      <set comment="kpoint 68">
       <r>   -7.0734    1.0000 </r>
       <r>   -5.1952    1.0000 </r>
       <r>   -4.5267    1.0000 </r>
       <r>    0.8800    1.0000 </r>
       <r>    1.3862    1.0000 </r>
       <r>    1.9967    1.0000 </r>
       <r>    2.8868    1.0000 </r>
       <r>    4.5905    1.0000 </r>
       <r>    4.7541    1.0000 </r>
       <r>    6.3815    0.0000 </r>
       <r>    6.4931    0.0000 </r>
       <r>    8.5859    0.0000 </r>
       <r>    8.8113    0.0000 </r>
       <r>   11.8856    0.0000 </r>
      </set>
      <set comment="kpoint 69">
       <r>   -7.1246    1.0000 </r>
       <r>   -5.1488    1.0000 </r>
       <r>   -4.5345    1.0000 </r>
       <r>    0.8852    1.0000 </r>
       <r>    1.4217    1.0000 </r>
       <r>    2.0151    1.0000 </r>
       <r>    3.0315    1.0000 </r>
       <r>    4.5972    1.0000 </r>
       <r>    4.7547    1.0000 </r>
       <r>    6.3803    0.0000 </r>
       <r>    6.5055    0.0000 </r>
[...]
        <r>  0.0196  0.0636  0.0666  0.0461  0.0008  0.0020  0.0000  0.0013  0.0010 </r>
        <r>  0.0151  0.0046  0.0658  0.0555  0.0019  0.0015  0.0031  0.0016  0.0019 </r>
       </set>
       <set comment="band 12">
        <r>  0.0103  0.0269  0.0687  0.0952  0.0015  0.0013  0.0005  0.0028  0.0010 </r>
        <r>  0.0173  0.0139  0.0272  0.0357  0.0035  0.0002  0.0048  0.0006  0.0017 </r>
        <r>  0.0103  0.0343  0.0687  0.0877  0.0019  0.0009  0.0005  0.0032  0.0006 </r>
       </set>
       <set comment="band 13">
        <r>  0.0006  0.0010  0.0001  0.0005  0.0037  0.0007  0.0536  0.0026  0.0022 </r>
        <r>  0.0004  0.0003  0.0004  0.0002  0.0056  0.0006  0.0532  0.0014  0.0020 </r>
        <r>  0.0006  0.0001  0.0001  0.0015  0.0001  0.0032  0.0536  0.0001  0.0057 </r>
       </set>
       <set comment="band 14">
        <r>  0.0003  0.0001  0.0005  0.0020  0.0302  0.0009  0.0001  0.0111  0.0170 </r>
        <r>  0.0012  0.0012  0.0011  0.0017  0.0182  0.0082  0.0001  0.0229  0.0067 </r>
        <r>  0.0003  0.0018  0.0005  0.0002  0.0399  0.0067  0.0001  0.0053  0.0073 </r>
       </set>
      </set>
      <set comment="kpoint 207">
       <set comment="band 1">
        <r>  0.1003  0.0008  0.0075  0.0000  0.0000  0.0002  0.0000  0.0000  0.0001 </r>
        <r>  0.4049  0.0015  0.0000  0.0005  0.0001  0.0000  0.0000  0.0001  0.0000 </r>
        <r>  0.1039  0.0003  0.0074  0.0005  0.0001  0.0000  0.0000  0.0002  0.0000 </r>
       </set>
       <set comment="band 2">
        <r>  0.3058  0.0009  0.0024  0.0008  0.0001  0.0000  0.0000  0.0002  0.0000 </r>
        <r>  0.0010  0.0001  0.0099  0.0003  0.0000  0.0002  0.0000  0.0001  0.0001 </r>
        <r>  0.3022  0.0001  0.0025  0.0016  0.0000  0.0001  0.0000  0.0001  0.0000 </r>
       </set>
       <set comment="band 3">
        <r>  0.2726  0.0010  0.0000  0.0006  0.0000  0.0000  0.0000  0.0000  0.0000 </r>
        <r>  0.2724  0.0009  0.0000  0.0004  0.0000  0.0000  0.0000  0.0000  0.0000 </r>
        <r>  0.2726  0.0001  0.0000  0.0016  0.0000  0.0000  0.0000  0.0000  0.0000 </r>
       </set>
       <set comment="band 4">
        <r>  0.0000  0.0056  0.1470  0.0170  0.0004  0.0013  0.0000  0.0004  0.0010 </r>
        <r>  0.0001  0.0069  0.1424  0.0187  0.0004  0.0013  0.0000  0.0005  0.0010 </r>
        <r>  0.0000  0.0224  0.1470  0.0003  0.0014  0.0000  0.0000  0.0017  0.0000 </r>
       </set>
       <set comment="band 5">
        <r>  0.0023  0.1107  0.0065  0.0047  0.0000  0.0017  0.0001  0.0000  0.0001 </r>
        <r>  0.0024  0.1894  0.0088  0.0633  0.0004  0.0005  0.0002  0.0009  0.0001 </r>
        <r>  0.0023  0.0355  0.0065  0.0801  0.0000  0.0002  0.0001  0.0015  0.0001 </r>
       </set>
       <set comment="band 6">
        <r>  0.0026  0.1092  0.0068  0.1034  0.0004  0.0002  0.0002  0.0013  0.0000 </r>
        <r>  0.0055  0.0232  0.0096  0.0328  0.0000  0.0014  0.0000  0.0005  0.0000 </r>
        <r>  0.0026  0.0135  0.0068  0.1989  0.0000  0.0008  0.0002  0.0007  0.0004 </r>
       </set>
       <set comment="band 7">
        <r>  0.0028  0.0194  0.0226  0.0588  0.0009  0.0008  0.0001  0.0003  0.0007 </r>
        <r>  0.0053  0.0576  0.0428  0.1722  0.0003  0.0004  0.0003  0.0001  0.0008 </r>
        <r>  0.0028  0.0777  0.0226  0.0005  0.0014  0.0000  0.0001  0.0011  0.0002 </r>
       </set>
       <set comment="band 8">
        <r>  0.0151  0.0553  0.0318  0.0669  0.0011  0.0000  0.0010  0.0004  0.0011 </r>
        <r>  0.0002  0.0286  0.0643  0.0624  0.0008  0.0006  0.0000  0.0002  0.0003 </r>
        <r>  0.0151  0.1069  0.0318  0.0153  0.0002  0.0004  0.0010  0.0000  0.0020 </r>
       </set>
       <set comment="band 9">
        <r>  0.0061  0.0226  0.0633  0.1345  0.0009  0.0004  0.0002  0.0001  0.0002 </r>
        <r>  0.0170  0.0164  0.0036  0.0107  0.0024  0.0002  0.0012  0.0001  0.0009 </r>
        <r>  0.0061  0.1540  0.0633  0.0030  0.0000  0.0000  0.0002  0.0005  0.0011 </r>
       </set>
       <set comment="band 10">
        <r>  0.0192  0.0794  0.0202  0.0065  0.0032  0.0021  0.0018  0.0004  0.0011 </r>
        <r>  0.0036  0.0802  0.0743  0.0622  0.0008  0.0041  0.0004  0.0021  0.0024 </r>
        <r>  0.0192  0.0432  0.0202  0.0427  0.0006  0.0007  0.0018  0.0018  0.0036 </r>
       </set>
       <set comment="band 11">
        <r>  0.0139  0.0561  0.0640  0.0024  0.0012  0.0029  0.0030  0.0005  0.0029 </r>
        <r>  0.0220  0.0733  0.0556  0.0490  0.0006  0.0018  0.0000  0.0013  0.0009 </r>
        <r>  0.0139  0.0087  0.0640  0.0497  0.0019  0.0014  0.0030  0.0019  0.0022 </r>
       </set>
       <set comment="band 12">
        <r>  0.0111  0.0297  0.0648  0.0990  0.0015  0.0011  0.0005  0.0031  0.0009 </r>
        <r>  0.0175  0.0119  0.0241  0.0227  0.0039  0.0003  0.0048  0.0009  0.0018 </r>
        <r>  0.0111  0.0348  0.0648  0.0940  0.0018  0.0011  0.0005  0.0031  0.0006 </r>
       </set>
       <set comment="band 13">
        <r>  0.0006  0.0007  0.0001  0.0004  0.0041  0.0007  0.0538  0.0023  0.0019 </r>
        <r>  0.0005  0.0003  0.0003  0.0002  0.0051  0.0006  0.0535  0.0017  0.0018 </r>
        <r>  0.0006  0.0000  0.0001  0.0010  0.0001  0.0030  0.0538  0.0000  0.0059 </r>
       </set>
       <set comment="band 14">
        <r>  0.0003  0.0000  0.0006  0.0015  0.0309  0.0006  0.0000  0.0121  0.0180 </r>
        <r>  0.0012  0.0009  0.0006  0.0010  0.0197  0.0083  0.0000  0.0240  0.0069 </r>
        <r>  0.0003  0.0013  0.0006  0.0002  0.0417  0.0074  0.0000  0.0053  0.0072 </r>
       </set>
      </set>
      <set comment="kpoint 208">
       <set comment="band 1">
        <r>  0.0976  0.0008  0.0076  0.0000  0.0000  0.0002  0.0000  0.0000  0.0001 </r>
        <r>  0.4052  0.0015  0.0000  0.0005  0.0001  0.0000  0.0000  0.0001  0.0000 </r>
        <r>  0.1059  0.0003  0.0074  0.0005  0.0001  0.0000  0.0000  0.0002  0.0000 </r>
       </set>
       <set comment="band 2">
        <r>  0.3082  0.0008  0.0024  0.0008  0.0001  0.0000  0.0000  0.0002  0.0000 </r>
        <r>  0.0005  0.0001  0.0100  0.0003  0.0000  0.0002  0.0000  0.0001  0.0001 </r>
        <r>  0.3000  0.0001  0.0026  0.0015  0.0000  0.0001  0.0000  0.0001  0.0000 </r>
       </set>
       <set comment="band 3">
        <r>  0.2733  0.0009  0.0000  0.0004  0.0000  0.0000  0.0000  0.0000  0.0000 </r>
        <r>  0.2733  0.0009  0.0000  0.0004  0.0000  0.0000  0.0000  0.0000  0.0000 </r>
        <r>  0.2733  0.0000  0.0000  0.0013  0.0000  0.0000  0.0000  0.0000  0.0000 </r>
       </set>
       <set comment="band 4">
        <r>  0.0000  0.0055  0.1474  0.0166  0.0004  0.0013  0.0000  0.0004  0.0010 </r>
        <r>  0.0000  0.0061  0.1454  0.0174  0.0004  0.0013  0.0000  0.0004  0.0010 </r>
        <r>  0.0000  0.0220  0.1474  0.0001  0.0014  0.0000  0.0000  0.0017  0.0000 </r>
       </set>
       <set comment="band 5">
        <r>  0.0016  0.1077  0.0076  0.0026  0.0001  0.0018  0.0001  0.0000  0.0001 </r>
        <r>  0.0032  0.2008  0.0037  0.0671  0.0004  0.0003  0.0002  0.0008  0.0001 </r>
        <r>  0.0016  0.0365  0.0076  0.0743  0.0000  0.0002  0.0001  0.0015  0.0001 </r>
       </set>
       <set comment="band 6">
        <r>  0.0028  0.1133  0.0045  0.1050  0.0003  0.0001  0.0002  0.0013  0.0000 </r>
        <r>  0.0024  0.0168  0.0105  0.0349  0.0000  0.0015  0.0000  0.0005  0.0000 </r>
        <r>  0.0028  0.0129  0.0045  0.2049  0.0000  0.0008  0.0002  0.0006  0.0004 </r>
       </set>
       <set comment="band 7">
        <r>  0.0011  0.0271  0.0214  0.0838  0.0006  0.0008  0.0000  0.0002  0.0008 </r>
        <r>  0.0031  0.0476  0.0305  0.1428  0.0003  0.0005  0.0001  0.0002  0.0009 </r>
        <r>  0.0011  0.1108  0.0214  0.0001  0.0014  0.0000  0.0000  0.0010  0.0001 </r>
       </set>
       <set comment="band 8">
        <r>  0.0160  0.0505  0.0283  0.0437  0.0015  0.0001  0.0010  0.0002  0.0010 </r>
        <r>  0.0000  0.0376  0.0818  0.1017  0.0004  0.0006  0.0000  0.0002  0.0002 </r>
        <r>  0.0159  0.0795  0.0283  0.0148  0.0001  0.0002  0.0010  0.0001  0.0024 </r>
       </set>
       <set comment="band 9">
        <r>  0.0056  0.0206  0.0686  0.1348  0.0008  0.0004  0.0003  0.0002  0.0002 </r>
        <r>  0.0192  0.0149  0.0017  0.0074  0.0026  0.0001  0.0013  0.0001  0.0009 </r>
        <r>  0.0057  0.1517  0.0685  0.0037  0.0000  0.0000  0.0003  0.0005  0.0010 </r>
       </set>
       <set comment="band 10">
        <r>  0.0228  0.0697  0.0246  0.0043  0.0030  0.0019  0.0019  0.0005  0.0009 </r>
        <r>  0.0032  0.0668  0.0913  0.0623  0.0009  0.0043  0.0003  0.0020  0.0026 </r>
        <r>  0.0228  0.0338  0.0246  0.0401  0.0008  0.0006  0.0019  0.0017  0.0031 </r>
       </set>
       <set comment="band 11">
        <r>  0.0118  0.0531  0.0692  0.0020  0.0011  0.0036  0.0027  0.0002  0.0035 </r>
        <r>  0.0280  0.0812  0.0374  0.0493  0.0003  0.0015  0.0000  0.0011  0.0006 </r>
        <r>  0.0118  0.0191  0.0692  0.0359  0.0021  0.0012  0.0027  0.0026  0.0025 </r>
       </set>
       <set comment="band 12">
        <r>  0.0114  0.0404  0.0539  0.1010  0.0018  0.0006  0.0007  0.0035  0.0005 </r>
        <r>  0.0142  0.0157  0.0224  0.0112  0.0043  0.0005  0.0049  0.0013  0.0018 </r>
        <r>  0.0114  0.0309  0.0539  0.1105  0.0016  0.0015  0.0007  0.0026  0.0007 </r>
       </set>
       <set comment="band 13">
        <r>  0.0005  0.0004  0.0000  0.0002  0.0043  0.0007  0.0539  0.0022  0.0017 </r>
        <r>  0.0005  0.0003  0.0001  0.0001  0.0048  0.0007  0.0538  0.0019  0.0016 </r>
        <r>  0.0005  0.0000  0.0000  0.0006  0.0000  0.0028  0.0539  0.0000  0.0060 </r>
       </set>
       <set comment="band 14">
        <r>  0.0003  0.0000  0.0006  0.0011  0.0317  0.0003  0.0000  0.0131  0.0185 </r>
        <r>  0.0012  0.0007  0.0002  0.0006  0.0210  0.0084  0.0000  0.0251  0.0071 </r>
        <r>  0.0003  0.0010  0.0006  0.0001  0.0434  0.0079  0.0000  0.0052  0.0070 </r>
       </set>
      </set>
      <set comment="kpoint 209">
       <set comment="band 1">
        <r>  0.0848  0.0007  0.0079  0.0000  0.0000  0.0002  0.0000  0.0000  0.0001 </r>
        <r>  0.4045  0.0015  0.0000  0.0005  0.0001  0.0000  0.0000  0.0001  0.0000 </r>
        <r>  0.1191  0.0003  0.0071  0.0006  0.0001  0.0000  0.0000  0.0002  0.0000 </r>
       </set>
       <set comment="band 2">
        <r>  0.3208  0.0009  0.0021  0.0008  0.0001  0.0000  0.0000  0.0002  0.0000 </r>
        <r>  0.0011  0.0001  0.0100  0.0003  0.0000  0.0002  0.0000  0.0001  0.0001 </r>
        <r>  0.2865  0.0001  0.0029  0.0014  0.0000  0.0001  0.0000  0.0001  0.0000 </r>
       </set>
       <set comment="band 3">
        <r>  0.2738  0.0009  0.0000  0.0003  0.0000  0.0000  0.0000  0.0000  0.0000 </r>
        <r>  0.2738  0.0009  0.0000  0.0003  0.0000  0.0000  0.0000  0.0000  0.0000 </r>
        <r>  0.2738  0.0000  0.0000  0.0012  0.0000  0.0000  0.0000  0.0000  0.0000 </r>
       </set>
       <set comment="band 4">
        <r>  0.0000  0.0055  0.1476  0.0164  0.0003  0.0013  0.0000  0.0004  0.0010 </r>
        <r>  0.0000  0.0056  0.1471  0.0166  0.0003  0.0013  0.0000  0.0004  0.0010 </r>
        <r>  0.0000  0.0218  0.1476  0.0000  0.0014  0.0000  0.0000  0.0017  0.0000 </r>
       </set>
       <set comment="band 5">
        <r>  0.0011  0.1052  0.0083  0.0017  0.0001  0.0018  0.0001  0.0000  0.0001 </r>
        <r>  0.0038  0.2067  0.0009  0.0696  0.0004  0.0003  0.0003  0.0008  0.0001 </r>
        <r>  0.0011  0.0369  0.0082  0.0720  0.0000  0.0003  0.0001  0.0016  0.0001 </r>
       </set>
       <set comment="band 6">
        <r>  0.0029  0.1163  0.0032  0.1055  0.0003  0.0000  0.0002  0.0013  0.0001 </r>
        <r>  0.0006  0.0139  0.0110  0.0362  0.0000  0.0016  0.0000  0.0005  0.0000 </r>
        <r>  0.0029  0.0128  0.0033  0.2071  0.0000  0.0008  0.0002  0.0006  0.0004 </r>
       </set>
       <set comment="band 7">
        <r>  0.0002  0.0339  0.0200  0.1028  0.0004  0.0007  0.0000  0.0002  0.0010 </r>
        <r>  0.0009  0.0395  0.0221  0.1185  0.0003  0.0006  0.0000  0.0002  0.0010 </r>
        <r>  0.0002  0.1368  0.0200  0.0000  0.0014  0.0000  0.0000  0.0009  0.0000 </r>
       </set>
       <set comment="band 8">
        <r>  0.0162  0.0462  0.0256  0.0250  0.0019  0.0002  0.0010  0.0001  0.0008 </r>
        <r>  0.0000  0.0461  0.0944  0.1354  0.0001  0.0005  0.0000  0.0002  0.0000 </r>
        <r>  0.0161  0.0575  0.0257  0.0138  0.0000  0.0001  0.0010  0.0001  0.0027 </r>
       </set>
       <set comment="band 9">
        <r>  0.0054  0.0189  0.0726  0.1348  0.0008  0.0003  0.0003  0.0002  0.0002 </r>
        <r>  0.0209  0.0138  0.0004  0.0052  0.0028  0.0000  0.0013  0.0000  0.0009 </r>
        <r>  0.0054  0.1492  0.0725  0.0042  0.0000  0.0000  0.0003  0.0005  0.0010 </r>
       </set>
       <set comment="band 10">
        <r>  0.0287  0.0551  0.0309  0.0028  0.0028  0.0016  0.0019  0.0005  0.0005 </r>
        <r>  0.0018  0.0441  0.1189  0.0619  0.0011  0.0048  0.0001  0.0019  0.0030 </r>
        <r>  0.0287  0.0250  0.0310  0.0330  0.0010  0.0004  0.0019  0.0017  0.0023 </r>
       </set>
       <set comment="band 11">
        <r>  0.0104  0.0219  0.0992  0.0303  0.0004  0.0046  0.0016  0.0003  0.0044 </r>
        <r>  0.0435  0.0565  0.0082  0.0302  0.0004  0.0005  0.0010  0.0003  0.0003 </r>
        <r>  0.0104  0.0482  0.0991  0.0040  0.0031  0.0003  0.0016  0.0046  0.0016 </r>
       </set>
       <set comment="band 12">
        <r>  0.0081  0.0846  0.0172  0.0748  0.0027  0.0000  0.0018  0.0035  0.0001 </r>
        <r>  0.0017  0.0614  0.0214  0.0206  0.0042  0.0010  0.0041  0.0022  0.0018 </r>
        <r>  0.0081  0.0092  0.0172  0.1502  0.0005  0.0028  0.0018  0.0008  0.0023 </r>
       </set>
       <set comment="band 13">
        <r>  0.0005  0.0003  0.0000  0.0001  0.0045  0.0007  0.0539  0.0021  0.0015 </r>
        <r>  0.0005  0.0003  0.0000  0.0001  0.0046  0.0007  0.0539  0.0020  0.0015 </r>
        <r>  0.0005  0.0000  0.0000  0.0004  0.0000  0.0027  0.0539  0.0000  0.0060 </r>
       </set>
       <set comment="band 14">
        <r>  0.0002  0.0001  0.0007  0.0010  0.0289  0.0011  0.0000  0.0100  0.0259 </r>
        <r>  0.0012  0.0005  0.0001  0.0001  0.0170  0.0100  0.0000  0.0238  0.0120 </r>
        <r>  0.0004  0.0007  0.0005  0.0002  0.0376  0.0124  0.0000  0.0044  0.0106 </r>
       </set>
      </set>
      <set comment="kpoint 210">
       <set comment="band 1">
        <r>  0.1027  0.0001  0.0075  0.0007  0.0001  0.0001  0.0000  0.0001  0.0000 </r>
        <r>  0.1001  0.0001  0.0075  0.0007  0.0001  0.0001  0.0000  0.0001  0.0000 </r>
        <r>  0.4056  0.0000  0.0000  0.0020  0.0000  0.0001  0.0000  0.0000  0.0001 </r>
       </set>
       <set comment="band 2">
        <r>  0.3029  0.0015  0.0025  0.0001  0.0000  0.0001  0.0000  0.0000  0.0001 </r>
        <r>  0.3055  0.0015  0.0025  0.0001  0.0000  0.0001  0.0000  0.0000  0.0001 </r>
        <r>  0.0000  0.0004  0.0100  0.0000  0.0001  0.0000  0.0000  0.0003  0.0000 </r>
       </set>
       <set comment="band 3">
        <r>  0.2740  0.0009  0.0000  0.0003  0.0000  0.0000  0.0000  0.0000  0.0000 </r>
        <r>  0.2740  0.0009  0.0000  0.0003  0.0000  0.0000  0.0000  0.0000  0.0000 </r>
        <r>  0.2740  0.0000  0.0000  0.0011  0.0000  0.0000  0.0000  0.0000  0.0000 </r>
       </set>
       <set comment="band 4">
        <r>  0.0000  0.0054  0.1477  0.0163  0.0003  0.0013  0.0000  0.0004  0.0010 </r>
        <r>  0.0000  0.0054  0.1477  0.0163  0.0003  0.0013  0.0000  0.0004  0.0010 </r>
        <r>  0.0000  0.0217  0.1477  0.0000  0.0014  0.0000  0.0000  0.0017  0.0000 </r>
       </set>
       <set comment="band 5">
        <r>  0.0010  0.0180  0.0084  0.0899  0.0001  0.0007  0.0001  0.0011  0.0000 </r>
        <r>  0.0010  0.0169  0.0084  0.0892  0.0001  0.0007  0.0001  0.0011  0.0000 </r>
        <r>  0.0039  0.0000  0.0000  0.2790  0.0000  0.0010  0.0003  0.0000  0.0005 </r>
       </set>
       <set comment="band 6">
        <r>  0.0029  0.2036  0.0028  0.0171  0.0002  0.0011  0.0002  0.0002  0.0001 </r>
        <r>  0.0030  0.2047  0.0028  0.0178  0.0002  0.0011  0.0002  0.0002  0.0001 </r>
        <r>  0.0000  0.0497  0.0112  0.0000  0.0000  0.0000  0.0000  0.0021  0.0000 </r>
       </set>
       <set comment="band 7">
        <r>  0.0000  0.0365  0.0193  0.1096  0.0004  0.0006  0.0000  0.0002  0.0011 </r>
        <r>  0.0000  0.0365  0.0193  0.1096  0.0004  0.0006  0.0000  0.0002  0.0011 </r>
        <r>  0.0000  0.1461  0.0194  0.0000  0.0014  0.0000  0.0000  0.0009  0.0000 </r>
       </set>
       <set comment="band 8">
        <r>  0.0160  0.0002  0.0252  0.0636  0.0022  0.0001  0.0010  0.0001  0.0006 </r>
        <r>  0.0162  0.0001  0.0242  0.0617  0.0022  0.0001  0.0010  0.0001  0.0006 </r>
        <r>  0.0000  0.1977  0.0988  0.0000  0.0000  0.0000  0.0000  0.0007  0.0000 </r>
       </set>
       <set comment="band 9">
        <r>  0.0055  0.0626  0.0735  0.0892  0.0006  0.0005  0.0003  0.0001  0.0003 </r>
        <r>  0.0053  0.0627  0.0746  0.0911  0.0006  0.0005  0.0003  0.0001  0.0003 </r>
        <r>  0.0215  0.0000  0.0000  0.0178  0.0000  0.0000  0.0013  0.0000  0.0038 </r>
       </set>
       <set comment="band 10">
        <r>  0.0346  0.0032  0.0379  0.0402  0.0003  0.0015  0.0019  0.0004  0.0025 </r>
        <r>  0.0352  0.0036  0.0358  0.0391  0.0003  0.0014  0.0019  0.0003  0.0024 </r>
        <r>  0.0000  0.0821  0.1472  0.0000  0.0047  0.0000  0.0000  0.0072  0.0000 </r>
       </set>
       <set comment="band 11">
        <r>  0.0120  0.0399  0.1094  0.0289  0.0025  0.0039  0.0006  0.0014  0.0015 </r>
        <r>  0.0113  0.0395  0.1115  0.0300  0.0024  0.0040  0.0006  0.0015  0.0016 </r>
        <r>  0.0465  0.0000  0.0000  0.0300  0.0000  0.0000  0.0025  0.0000  0.0021 </r>
       </set>
       <set comment="band 12">
        <r>  0.0012  0.1181  0.0000  0.0394  0.0031  0.0009  0.0028  0.0026  0.0010 </r>
        <r>  0.0012  0.1181  0.0000  0.0394  0.0031  0.0009  0.0028  0.0026  0.0010 </r>
        <r>  0.0012  0.0000  0.0000  0.1574  0.0000  0.0035  0.0028  0.0000  0.0041 </r>
       </set>
       <set comment="band 13">
        <r>  0.0005  0.0003  0.0000  0.0001  0.0045  0.0007  0.0540  0.0020  0.0015 </r>
        <r>  0.0005  0.0003  0.0000  0.0001  0.0045  0.0007  0.0540  0.0020  0.0015 </r>
        <r>  0.0005  0.0000  0.0000  0.0003  0.0000  0.0027  0.0540  0.0000  0.0060 </r>
       </set>
       <set comment="band 14">
        <r>  0.0009  0.0005  0.0002  0.0002  0.0139  0.0099  0.0000  0.0171  0.0235 </r>
        <r>  0.0003  0.0002  0.0006  0.0007  0.0207  0.0045  0.0000  0.0091  0.0316 </r>
        <r>  0.0006  0.0005  0.0004  0.0003  0.0280  0.0184  0.0000  0.0032  0.0155 </r>
       </set>
      </set>
     </set>
    </set>
   </array>
  </projected>
 </calculation>
 <structure name="finalpos" >
  <crystal>
   <varray name="basis" >
    <v>       2.25932030      -3.91325756      -0.00000000 </v>
    <v>       2.25932030       3.91325756       0.00000000 </v>
    <v>      -0.00000000       0.00000000       5.95319668 </v>
   </varray>
   <i name="volume">    105.26802254 </i>
   <varray name="rec_basis" >
    <v>       0.22130550      -0.12777079       0.00000000 </v>
    <v>       0.22130550       0.12777079       0.00000000 </v>
    <v>       0.00000000      -0.00000000       0.16797698 </v>
   </varray>
  </crystal>
  <varray name="positions" >
   <v>       0.26862376       0.00000000       0.16666667 </v>
   <v>       0.00000000       0.26862376       0.83333333 </v>
   <v>       0.73137624       0.73137624       0.50000000 </v>
  </varray>
  <varray name="selective"  type="logical" >
   <v type="logical" >  T  T  T </v>
   <v type="logical" >  T  T  T </v>
   <v type="logical" >  T  T  T </v>
  </varray>
  <nose>
   <v>      -3.00000000       0.00000000       0.00010000       0.00010000 </v>
  </nose>
 </structure>
</modeling>
