    2    2    1    1
  0.3943865E+02  0.2464138E-09  0.2464138E-09  0.1500000E-08  0.5000000E-15
   1.0000000000000000E-004
  CAR 
 C                                       
      8     27     16

  0.3742002E-15  0.3742002E-15  0.1262379E-14  0.4444444E-02
    1      -21.779948   1.000000
    2       -9.875146   1.000000
    3       -5.269796   1.000000
    4       -5.269739   1.000000
    5        1.004609   0.000000
    6        1.903061   0.000000
    7        2.420732   0.000000
    8        4.288410   0.000000
    9        5.100148   0.000000
   10        6.119157   0.000000
   11        6.119222   0.000000
   12        8.217304   0.000000
   13        9.237535   0.000000
   14        9.328352   0.000000
   15       10.298855   0.000000
   16       13.544673   0.000000

  0.6666667E-01  0.3747003E-15  0.1262379E-14  0.2666667E-01
    1      -21.674756   1.000000
    2       -9.749081   1.000000
    3       -5.696254   1.000000
    4       -5.492825   1.000000
    5        1.147487   0.000000
    6        2.047260   0.000000
    7        2.566153   0.000000
    8        4.431684   0.000000
    9        5.239645   0.000000
   10        6.171437   0.000000
   11        6.573581   0.000000
   12        8.356391   0.000000
   13        8.870342   0.000000
   14        9.472796   0.000000
   15       10.492659   0.000000
   16       13.673451   0.000000

  0.1333333E+00  0.3747003E-15  0.1262379E-14  0.2666667E-01
    1      -21.359906   1.000000
    2       -9.374365   1.000000
    3       -6.826786   1.000000
    4       -6.058198   1.000000
    5        1.576199   0.000000
    6        2.478974   0.000000
    7        3.002494   0.000000
    8        4.860106   0.000000
    9        5.651471   0.000000
   10        6.201333   0.000000
   11        7.819622   0.000000
   12        7.849305   0.000000
   13        8.773005   0.000000
   14        9.901899   0.000000
   15       11.121717   0.000000
   16       14.048507   0.000000

  0.2000000E+00  0.3885781E-15  0.1262379E-14  0.2666667E-01
    1      -20.837681   1.000000
    2       -8.757353   1.000000
    3       -8.378100   1.000000
    4       -6.764433   1.000000
    5        2.290152   0.000000
    6        3.195402   0.000000
    7        3.729520   0.000000
    8        5.562284   0.000000
    9        5.977051   0.000000
   10        6.368427   0.000000
   11        6.437663   0.000000
   12        9.459963   0.000000
   13        9.637914   0.000000
   14       10.608684   0.000000
   15       12.128943   0.000000
   16       14.632047   0.000000

  0.2666667E+00  0.3885781E-15  0.1262379E-14  0.2666667E-01
    1      -20.112388   1.000000
    2      -10.112781   1.000000
    3       -7.913775   1.000000
    4       -7.451646   1.000000
    5        3.287134   0.000000
    6        4.135629   0.000000
    7        4.634069   0.000000
    8        4.745000   0.000000
    9        5.754161   0.000000
   10        6.583570   0.000000
   11        7.406134   0.000000
   12       10.405011   0.000000
   13       11.589775   0.000000
   14       11.799568   0.000000
   15       13.217614   0.000000
   16       15.264994   0.000000

  0.3333333E+00  0.3608225E-15  0.1262379E-14  0.2666667E-01
    1      -19.191543   1.000000
    2      -11.878779   1.000000
    3       -8.022353   1.000000
    4       -6.875264   1.000000
    5        2.682052   0.000000
    6        4.558107   0.000000
    7        5.490015   0.000000
    8        5.512098   0.000000
    9        6.069314   0.000000
   10        7.852280   0.000000
   11        8.681974   0.000000
   12       11.571143   0.000000
   13       12.836007   0.000000
   14       13.603071   0.000000
   15       14.103592   0.000000
   16       15.036131   0.000000

  0.4000000E+00  0.4163336E-15  0.1262379E-14  0.2666667E-01
    1      -18.091559   1.000000
    2      -13.578193   1.000000
    3       -8.424718   1.000000
    4       -5.729969   1.000000
    5        0.930962   0.000000
    6        5.263142   0.000000
    7        6.145701   0.000000
    8        7.068649   0.000000
    9        7.659799   0.000000
   10        9.384298   0.000000
   11       10.235992   0.000000
   12       12.141125   0.000000
   13       12.630162   0.000000
   14       13.480304   0.000000
   15       14.107506   0.000000
   16       14.347026   0.000000

  0.4666667E+00  0.4163336E-15  0.1262379E-14  0.2666667E-01
    1      -16.890465   1.000000
    2      -15.088779   1.000000
    3       -8.632281   1.000000
    4       -4.771475   1.000000
    5       -0.350903   0.000000
    6        5.166515   0.000000
    7        7.952596   0.000000
    8        8.882753   0.000000
    9        9.541125   0.000000
   10       10.006520   0.000000
   11       10.833276   0.000000
   12       11.255515   0.000000
   13       11.704511   0.000000
   14       12.053948   0.000000
   15       13.098958   0.000000
   16       14.072368   0.000000

  0.6666667E-01  0.6666667E-01  0.1262379E-14  0.2666667E-01
    1      -21.464731   1.000000
    2       -9.498780   1.000000
    3       -6.421826   1.000000
    4       -5.939699   1.000000
    5        1.433369   0.000000
    6        2.335223   0.000000
    7        2.857083   0.000000
    8        4.717599   0.000000
    9        5.518915   0.000000
   10        6.350536   0.000000
   11        7.250022   0.000000
   12        8.180053   0.000000
   13        8.633007   0.000000
   14        9.760188   0.000000
   15       10.940170   0.000000
   16       13.924110   0.000000

  0.1333333E+00  0.6666667E-01  0.1262379E-14  0.5333333E-01
    1      -21.046210   1.000000
    2       -9.002556   1.000000
    3       -7.674835   1.000000
    4       -6.666470   1.000000
    5        2.004993   0.000000
    6        2.909846   0.000000
    7        3.438993   0.000000
    8        5.287029   0.000000
    9        6.062369   0.000000
   10        6.508870   0.000000
   11        6.945251   0.000000
   12        8.424640   0.000000
   13        9.181827   0.000000
   14       10.329565   0.000000
   15       11.930149   0.000000
   16       14.394982   0.000000

  0.2000000E+00  0.6666667E-01  0.1262379E-14  0.5333333E-01
    1      -20.422450   1.000000
    2       -9.258157   1.000000
    3       -8.270999   1.000000
    4       -7.423141   1.000000
    5        2.861143   0.000000
    6        3.763731   0.000000
    7        4.311353   0.000000
    8        5.339476   0.000000
    9        6.154267   0.000000
   10        6.303274   0.000000
   11        6.995344   0.000000
   12        9.991730   0.000000
   13       10.078676   0.000000
   14       11.177197   0.000000
   15       13.292960   0.000000
   16       14.965552   0.000000

  0.2666667E+00  0.6666667E-01  0.1262379E-14  0.5333333E-01
    1      -19.599233   1.000000
    2      -10.977716   1.000000
    3       -8.083874   1.000000
    4       -7.325447   1.000000
    5        3.525464   0.000000
    6        3.998560   0.000000
    7        4.939301   0.000000
    8        5.469244   0.000000
    9        6.087218   0.000000
   10        7.278940   0.000000
   11        8.115946   0.000000
   12       11.031487   0.000000
   13       11.883221   0.000000
   14       12.310747   0.000000
   15       14.586941   0.000000
   16       15.075648   0.000000

  0.3333333E+00  0.6666667E-01  0.1262379E-14  0.5333333E-01
    1      -18.587493   1.000000
    2      -12.696480   1.000000
    3       -8.586419   1.000000
    4       -6.217179   1.000000
    5        1.733249   0.000000
    6        5.394572   0.000000
    7        5.866059   0.000000
    8        6.349996   0.000000
    9        6.935997   0.000000
   10        8.673207   0.000000
   11        9.530340   0.000000
   12       12.163684   0.000000
   13       12.770366   0.000000
   14       13.672682   0.000000
   15       14.134142   0.000000
   16       14.898398   0.000000

  0.4000000E+00  0.6666667E-01  0.1262379E-14  0.5333333E-01
    1      -17.417615   1.000000
    2      -14.313744   1.000000
    3       -8.897980   1.000000
    4       -5.099352   1.000000
    5        0.164013   0.000000
    6        5.674238   0.000000
    7        7.119223   0.000000
    8        8.028519   0.000000
    9        8.673676   0.000000
   10       10.280020   0.000000
   11       11.118073   0.000000
   12       11.241431   0.000000
   13       11.951815   0.000000
   14       12.977637   0.000000
   15       13.466163   0.000000
   16       14.616960   0.000000

  0.4666667E+00  0.6666667E-01  0.1262379E-14  0.2666667E-01
    1      -16.461189   1.000000
    2      -15.422857   1.000000
    3       -9.003752   1.000000
    4       -4.510263   1.000000
    5       -0.583194   0.000000
    6        5.623316   0.000000
    7        8.970767   0.000000
    8        9.128051   0.000000
    9        9.754128   0.000000
   10       10.101940   0.000000
   11       10.684064   0.000000
   12       10.709664   0.000000
   13       11.862306   0.000000
   14       12.490741   0.000000
   15       13.088607   0.000000
   16       13.173883   0.000000

  0.1333333E+00  0.1333333E+00  0.1262379E-14  0.2666667E-01
    1      -20.526153   1.000000
    2       -8.776061   1.000000
    3       -8.390893   1.000000
    4       -7.629931   1.000000
    5        2.719268   0.000000
    6        3.625653   0.000000
    7        4.166622   0.000000
    8        5.642375   0.000000
    9        5.995700   0.000000
   10        6.761886   0.000000
   11        7.206864   0.000000
   12        8.802161   0.000000
   13        9.846583   0.000000
   14       11.037052   0.000000
   15       13.424639   0.000000
   16       14.822350   0.000000

  0.2000000E+00  0.1333333E+00  0.1262379E-14  0.5333333E-01
    1      -19.804437   1.000000
    2      -10.171363   1.000000
    3       -8.535997   1.000000
    4       -7.553813   1.000000
    5        3.716802   0.000000
    6        4.073219   0.000000
    7        4.631082   0.000000
    8        5.184563   0.000000
    9        6.978720   0.000000
   10        7.330813   0.000000
   11        7.865310   0.000000
   12        9.866064   0.000000
   13       10.727925   0.000000
   14       12.018296   0.000000
   15       14.723376   0.000000
   16       15.099920   0.000000

  0.2666667E+00  0.1333333E+00  0.1262379E-14  0.5333333E-01
    1      -18.889440   1.000000
    2      -11.762334   1.000000
    3       -9.210170   1.000000
    4       -6.522954   1.000000
    5        2.399066   0.000000
    6        4.992970   0.000000
    7        5.898047   0.000000
    8        6.488885   0.000000
    9        7.209875   0.000000
   10        8.218383   0.000000
   11        9.107817   0.000000
   12       11.393488   0.000000
   13       11.652392   0.000000
   14       13.264635   0.000000
   15       14.032929   0.000000
   16       15.672783   0.000000

  0.3333333E+00  0.1333333E+00  0.1262379E-14  0.5333333E-01
    1      -17.798885   1.000000
    2      -13.374271   1.000000
    3       -9.654717   1.000000
    4       -5.377787   1.000000
    5        0.766602   0.000000
    6        6.527007   0.000000
    7        7.030859   0.000000
    8        7.418080   0.000000
    9        8.095131   0.000000
   10        9.646185   0.000000
   11       10.647800   0.000000
   12       11.959768   0.000000
   13       11.976956   0.000000
   14       13.894901   0.000000
   15       14.208038   0.000000
   16       14.718500   0.000000

  0.4000000E+00  0.1333333E+00  0.1262379E-14  0.5333333E-01
    1      -16.612968   1.000000
    2      -14.838296   1.000000
    3       -9.876376   1.000000
    4       -4.397306   1.000000
    5       -0.474364   0.000000
    6        6.897601   0.000000
    7        8.353637   0.000000
    8        9.072026   0.000000
    9        9.968353   0.000000
   10       10.341578   0.000000
   11       10.644309   0.000000
   12       11.668270   0.000000
   13       12.110593   0.000000
   14       12.438324   0.000000
   15       12.926278   0.000000
   16       14.246285   0.000000

  0.2000000E+00  0.2000000E+00  0.1262379E-14  0.2666667E-01
    1      -18.990737   1.000000
    2      -11.185825   1.000000
    3       -9.708587   1.000000
    4       -6.626705   1.000000
    5        2.673784   0.000000
    6        4.852868   0.000000
    7        5.739473   0.000000
    8        6.347512   0.000000
    9        8.058603   0.000000
   10        8.563763   0.000000
   11        9.028515   0.000000
   12        9.799979   0.000000
   13       11.445244   0.000000
   14       13.123771   0.000000
   15       13.841700   0.000000
   16       16.572270   0.000000

  0.2666667E+00  0.2000000E+00  0.1262379E-14  0.5333333E-01
    1      -17.994452   1.000000
    2      -12.469137   1.000000
    3      -10.528519   1.000000
    4       -5.532407   1.000000
    5        1.193777   0.000000
    6        6.261150   0.000000
    7        7.087791   0.000000
    8        7.796600   0.000000
    9        8.829373   0.000000
   10        9.282694   0.000000
   11       10.361611   0.000000
   12       10.938451   0.000000
   13       11.528820   0.000000
   14       14.079623   0.000000
   15       14.461745   0.000000
   16       15.362212   0.000000

  0.3333333E+00  0.2000000E+00  0.1262379E-14  0.5333333E-01
    1      -16.849589   1.000000
    2      -13.894695   1.000000
    3      -10.955602   1.000000
    4       -4.394876   1.000000
    5       -0.199038   0.000000
    6        7.916628   0.000000
    7        8.478824   0.000000
    8        8.690362   0.000000
    9        9.538466   0.000000
   10       10.210445   0.000000
   11       11.347938   0.000000
   12       11.888407   0.000000
   13       12.036688   0.000000
   14       13.587215   0.000000
   15       13.726966   0.000000
   16       14.539360   0.000000

  0.4000000E+00  0.2000000E+00  0.1262379E-14  0.2666667E-01
    1      -15.920938   1.000000
    2      -14.932765   1.000000
    3      -11.088764   1.000000
    4       -3.745431   1.000000
    5       -0.938641   0.000000
    6        8.610656   0.000000
    7        9.099867   0.000000
    8        9.675610   0.000000
    9        9.899734   0.000000
   10       10.968974   0.000000
   11       11.513400   0.000000
   12       11.558103   0.000000
   13       11.881562   0.000000
   14       13.355829   0.000000
   15       13.558697   0.000000
   16       13.883872   0.000000

  0.2666667E+00  0.2666667E+00  0.1262379E-14  0.2666667E-01
    1      -16.937486   1.000000
    2      -13.252001   1.000000
    3      -11.652158   1.000000
    4       -4.407382   1.000000
    5       -0.054747   0.000000
    6        7.782796   0.000000
    7        8.241078   0.000000
    8        9.383592   0.000000
    9        9.987208   0.000000
   10       10.471587   0.000000
   11       10.606878   0.000000
   12       11.804011   0.000000
   13       11.909399   0.000000
   14       14.832909   0.000000
   15       14.974863   0.000000
   16       15.138043   0.000000

  0.3333333E+00  0.2666667E+00  0.1262379E-14  0.5333333E-01
    1      -15.799958   1.000000
    2      -14.298209   1.000000
    3      -12.193337   1.000000
    4       -3.326143   1.000004
    5       -1.193079   0.000000
    6        8.576880   0.000000
    7        9.479496   0.000000
    8       10.364617   0.000000
    9       11.003850   0.000000
   10       11.107295   0.000000
   11       11.278884   0.000000
   12       12.950466   0.000000
   13       13.143794   0.000000
   14       13.506290   0.000000
   15       13.576111   0.000000
   16       14.265876   0.000000

  0.3333333E+00  0.3333333E+00  0.1262379E-14  0.8888889E-02
    1      -14.845559   1.000000
    2      -14.845526   1.000000
    3      -12.807382   1.000000
    4       -2.239244   0.999976
    5       -2.239218   0.000000
    6        8.380898   0.000000
    7       10.674584   0.000000
    8       10.674663   0.000000
    9       11.266325   0.000000
   10       12.696957   0.000000
   11       12.698158   0.000000
   12       12.974260   0.000000
   13       12.979782   0.000000
   14       13.197910   0.000000
   15       13.550774   0.000000
   16       13.960421   0.000000
