 running on    2 total cores
 distrk:  each k-point on    2 cores,    1 groups
 distr:  one band on    1 cores,    2 groups
 using from now: INCAR     
 vasp.5.4.4.18Apr17-6-g9f103f2a35 (build May 21 2018 15:16:00) complex           
 POSCAR found type information on POSCAR  C 
 POSCAR found :  1 types and       2 ions
 scaLAPACK will be used
 LDA part: xc-table for Pade appr. of Perdew
 found WAVECAR, reading the header
 POSCAR, INCAR and KPOINTS ok, starting setup
 FFT: planning ...
 reading WAVECAR
 the WAVECAR file was read successfully
 initial charge from wavefunction
 entering main loop
       N       E                     dE             d eps       ncg     rms          rms(c)
DAV:   1    -0.184606828730E+02   -0.18461E+02   -0.30508E-09   888   0.258E-04    0.211E-05
DAV:   2    -0.184606829369E+02   -0.63903E-07   -0.20203E-11  1048   0.209E-05    0.122E-05
DAV:   3    -0.184606830319E+02   -0.94937E-07   -0.23444E-11   760   0.200E-05    0.434E-06
DAV:   4    -0.184606830311E+02    0.72339E-09   -0.26504E-12   584   0.621E-06    0.368E-06
DAV:   5    -0.184606830772E+02   -0.46053E-07    0.20701E-13   480   0.317E-06
 Projection   1 done.
 Projection   2 done.
   1 F= -.18460683E+02 E0= -.18460683E+02  d E =0.000000E+00
