PROCAR lm decomposed
# of k-points:   27         # of bands:   16         # of ions:    2

 k-point     1 :    0.00000000 0.00000000 0.00000000     weight = 0.00444444

band     1 # energy  -21.77994756 # occ.  2.00000000

ion      s     py     pz     px    dxy    dyz    dz2    dxz  x2-y2    tot
    1  0.323  0.000  0.000  0.000  0.000  0.000  0.000  0.000  0.000  0.323
    2  0.323  0.000  0.000  0.000  0.000  0.000  0.000  0.000  0.000  0.323
tot    0.646  0.000  0.000  0.000  0.000  0.000  0.000  0.000  0.000  0.646

band     2 # energy   -9.87514558 # occ.  2.00000000

ion      s     py     pz     px    dxy    dyz    dz2    dxz  x2-y2    tot
    1  0.000  0.000  0.216  0.000  0.000  0.000  0.000  0.000  0.000  0.216
    2  0.000  0.000  0.216  0.000  0.000  0.000  0.000  0.000  0.000  0.216
tot    0.000  0.000  0.432  0.000  0.000  0.000  0.000  0.000  0.000  0.432

band     3 # energy   -5.26979568 # occ.  2.00000000

ion      s     py     pz     px    dxy    dyz    dz2    dxz  x2-y2    tot
    1  0.000  0.102  0.000  0.312  0.000  0.000  0.000  0.000  0.000  0.414
    2  0.000  0.102  0.000  0.312  0.000  0.000  0.000  0.000  0.000  0.414
tot    0.000  0.203  0.000  0.624  0.000  0.000  0.000  0.000  0.000  0.827

band     4 # energy   -5.26973917 # occ.  2.00000000

ion      s     py     pz     px    dxy    dyz    dz2    dxz  x2-y2    tot
    1  0.000  0.312  0.000  0.102  0.000  0.000  0.000  0.000  0.000  0.414
    2  0.000  0.312  0.000  0.102  0.000  0.000  0.000  0.000  0.000  0.414
tot    0.000  0.624  0.000  0.203  0.000  0.000  0.000  0.000  0.000  0.827

band     5 # energy    1.00460900 # occ.  0.00000000

ion      s     py     pz     px    dxy    dyz    dz2    dxz  x2-y2    tot
    1  0.010  0.000  0.000  0.000  0.000  0.000  0.000  0.000  0.000  0.010
    2  0.010  0.000  0.000  0.000  0.000  0.000  0.000  0.000  0.000  0.010
tot    0.019  0.000  0.000  0.000  0.000  0.000  0.000  0.000  0.000  0.019

band     6 # energy    1.90306097 # occ.  0.00000000

ion      s     py     pz     px    dxy    dyz    dz2    dxz  x2-y2    tot
    1  0.000  0.000  0.014  0.000  0.000  0.000  0.000  0.000  0.000  0.014
    2  0.000  0.000  0.014  0.000  0.000  0.000  0.000  0.000  0.000  0.014
tot    0.000  0.000  0.028  0.000  0.000  0.000  0.000  0.000  0.000  0.028

band     7 # energy    2.42073237 # occ.  0.00000000

ion      s     py     pz     px    dxy    dyz    dz2    dxz  x2-y2    tot
    1  0.003  0.000  0.000  0.000  0.000  0.000  0.000  0.000  0.000  0.003
    2  0.003  0.000  0.000  0.000  0.000  0.000  0.000  0.000  0.000  0.003
tot    0.006  0.000  0.000  0.000  0.000  0.000  0.000  0.000  0.000  0.006

band     8 # energy    4.28840951 # occ.  0.00000000

ion      s     py     pz     px    dxy    dyz    dz2    dxz  x2-y2    tot
    1  0.000  0.000  0.016  0.000  0.000  0.000  0.000  0.000  0.000  0.016
    2  0.000  0.000  0.016  0.000  0.000  0.000  0.000  0.000  0.000  0.016
tot    0.000  0.000  0.031  0.000  0.000  0.000  0.000  0.000  0.000  0.031

band     9 # energy    5.10014760 # occ.  0.00000000

ion      s     py     pz     px    dxy    dyz    dz2    dxz  x2-y2    tot
    1  0.007  0.000  0.000  0.000  0.000  0.000  0.000  0.000  0.000  0.007
    2  0.007  0.000  0.000  0.000  0.000  0.000  0.000  0.000  0.000  0.007
tot    0.014  0.000  0.000  0.000  0.000  0.000  0.000  0.000  0.000  0.014

band    10 # energy    6.11915656 # occ.  0.00000000

ion      s     py     pz     px    dxy    dyz    dz2    dxz  x2-y2    tot
    1  0.000  0.199  0.000  0.065  0.000  0.000  0.000  0.000  0.000  0.263
    2  0.000  0.199  0.000  0.065  0.000  0.000  0.000  0.000  0.000  0.263
tot    0.000  0.397  0.000  0.129  0.000  0.000  0.000  0.000  0.000  0.527

band    11 # energy    6.11922208 # occ.  0.00000000

ion      s     py     pz     px    dxy    dyz    dz2    dxz  x2-y2    tot
    1  0.000  0.065  0.000  0.199  0.000  0.000  0.000  0.000  0.000  0.263
    2  0.000  0.065  0.000  0.199  0.000  0.000  0.000  0.000  0.000  0.263
tot    0.000  0.129  0.000  0.397  0.000  0.000  0.000  0.000  0.000  0.527

band    12 # energy    8.21730438 # occ.  0.00000000

ion      s     py     pz     px    dxy    dyz    dz2    dxz  x2-y2    tot
    1  0.000  0.000  0.024  0.000  0.000  0.000  0.000  0.000  0.000  0.024
    2  0.000  0.000  0.024  0.000  0.000  0.000  0.000  0.000  0.000  0.024
tot    0.000  0.000  0.049  0.000  0.000  0.000  0.000  0.000  0.000  0.049

band    13 # energy    9.23753514 # occ.  0.00000000

ion      s     py     pz     px    dxy    dyz    dz2    dxz  x2-y2    tot
    1  0.000  0.000  0.392  0.000  0.000  0.000  0.000  0.000  0.000  0.392
    2  0.000  0.000  0.392  0.000  0.000  0.000  0.000  0.000  0.000  0.392
tot    0.000  0.000  0.783  0.000  0.000  0.000  0.000  0.000  0.000  0.783

band    14 # energy    9.32835249 # occ.  0.00000000

ion      s     py     pz     px    dxy    dyz    dz2    dxz  x2-y2    tot
    1  0.008  0.000  0.000  0.000  0.000  0.000  0.000  0.000  0.000  0.008
    2  0.008  0.000  0.000  0.000  0.000  0.000  0.000  0.000  0.000  0.008
tot    0.017  0.000  0.000  0.000  0.000  0.000  0.000  0.000  0.000  0.017

band    15 # energy   10.29885488 # occ.  0.00000000

ion      s     py     pz     px    dxy    dyz    dz2    dxz  x2-y2    tot
    1  0.358  0.000  0.000  0.000  0.000  0.000  0.000  0.000  0.000  0.358
    2  0.358  0.000  0.000  0.000  0.000  0.000  0.000  0.000  0.000  0.358
tot    0.716  0.000  0.000  0.000  0.000  0.000  0.000  0.000  0.000  0.716

band    16 # energy   13.54467325 # occ.  0.00000000

ion      s     py     pz     px    dxy    dyz    dz2    dxz  x2-y2    tot
    1  0.000  0.000  0.032  0.000  0.000  0.000  0.000  0.000  0.000  0.032
    2  0.000  0.000  0.032  0.000  0.000  0.000  0.000  0.000  0.000  0.032
tot    0.000  0.000  0.064  0.000  0.000  0.000  0.000  0.000  0.000  0.064


 k-point     2 :    0.06666667 0.00000000 0.00000000     weight = 0.02666667

band     1 # energy  -21.67475618 # occ.  2.00000000

ion      s     py     pz     px    dxy    dyz    dz2    dxz  x2-y2    tot
    1  0.322  0.001  0.000  0.002  0.000  0.000  0.000  0.000  0.000  0.324
    2  0.322  0.001  0.000  0.002  0.000  0.000  0.000  0.000  0.000  0.324
tot    0.643  0.001  0.000  0.003  0.000  0.000  0.000  0.000  0.000  0.648

band     2 # energy   -9.74908066 # occ.  2.00000000

ion      s     py     pz     px    dxy    dyz    dz2    dxz  x2-y2    tot
    1  0.000  0.000  0.216  0.000  0.000  0.000  0.000  0.000  0.000  0.216
    2  0.000  0.000  0.216  0.000  0.000  0.000  0.000  0.000  0.000  0.216
tot    0.000  0.000  0.433  0.000  0.000  0.000  0.000  0.000  0.000  0.433

band     3 # energy   -5.69625377 # occ.  2.00000000

ion      s     py     pz     px    dxy    dyz    dz2    dxz  x2-y2    tot
    1  0.012  0.099  0.000  0.298  0.000  0.000  0.000  0.000  0.000  0.409
    2  0.012  0.099  0.000  0.298  0.000  0.000  0.000  0.000  0.000  0.409
tot    0.024  0.199  0.000  0.596  0.000  0.000  0.000  0.000  0.000  0.819

band     4 # energy   -5.49282516 # occ.  2.00000000

ion      s     py     pz     px    dxy    dyz    dz2    dxz  x2-y2    tot
    1  0.000  0.308  0.000  0.103  0.000  0.000  0.000  0.000  0.000  0.411
    2  0.000  0.308  0.000  0.103  0.000  0.000  0.000  0.000  0.000  0.411
tot    0.000  0.616  0.000  0.205  0.000  0.000  0.000  0.000  0.000  0.822

band     5 # energy    1.14748698 # occ.  0.00000000

ion      s     py     pz     px    dxy    dyz    dz2    dxz  x2-y2    tot
    1  0.009  0.000  0.000  0.000  0.000  0.000  0.000  0.000  0.000  0.010
    2  0.009  0.000  0.000  0.000  0.000  0.000  0.000  0.000  0.000  0.010
tot    0.019  0.000  0.000  0.000  0.000  0.000  0.000  0.000  0.000  0.019

band     6 # energy    2.04725957 # occ.  0.00000000

ion      s     py     pz     px    dxy    dyz    dz2    dxz  x2-y2    tot
    1  0.000  0.000  0.014  0.000  0.000  0.000  0.000  0.000  0.000  0.014
    2  0.000  0.000  0.014  0.000  0.000  0.000  0.000  0.000  0.000  0.014
tot    0.000  0.000  0.028  0.000  0.000  0.000  0.000  0.000  0.000  0.028

band     7 # energy    2.56615301 # occ.  0.00000000

ion      s     py     pz     px    dxy    dyz    dz2    dxz  x2-y2    tot
    1  0.003  0.000  0.000  0.000  0.000  0.000  0.000  0.000  0.000  0.003
    2  0.003  0.000  0.000  0.000  0.000  0.000  0.000  0.000  0.000  0.003
tot    0.005  0.000  0.000  0.000  0.000  0.000  0.000  0.000  0.000  0.006

band     8 # energy    4.43168396 # occ.  0.00000000

ion      s     py     pz     px    dxy    dyz    dz2    dxz  x2-y2    tot
    1  0.000  0.000  0.016  0.000  0.000  0.000  0.000  0.000  0.000  0.016
    2  0.000  0.000  0.016  0.000  0.000  0.000  0.000  0.000  0.000  0.016
tot    0.000  0.000  0.031  0.000  0.000  0.000  0.000  0.000  0.000  0.031

band     9 # energy    5.23964489 # occ.  0.00000000

ion      s     py     pz     px    dxy    dyz    dz2    dxz  x2-y2    tot
    1  0.006  0.000  0.000  0.001  0.000  0.000  0.000  0.000  0.000  0.008
    2  0.006  0.000  0.000  0.001  0.000  0.000  0.000  0.000  0.000  0.008
tot    0.012  0.001  0.000  0.003  0.000  0.000  0.000  0.000  0.000  0.016

band    10 # energy    6.17143664 # occ.  0.00000000

ion      s     py     pz     px    dxy    dyz    dz2    dxz  x2-y2    tot
    1  0.008  0.062  0.000  0.187  0.000  0.000  0.000  0.000  0.000  0.258
    2  0.008  0.062  0.000  0.187  0.000  0.000  0.000  0.000  0.000  0.258
tot    0.016  0.125  0.000  0.375  0.000  0.000  0.000  0.000  0.000  0.516

band    11 # energy    6.57358083 # occ.  0.00000000

ion      s     py     pz     px    dxy    dyz    dz2    dxz  x2-y2    tot
    1  0.000  0.200  0.000  0.067  0.000  0.000  0.000  0.000  0.000  0.267
    2  0.000  0.200  0.000  0.067  0.000  0.000  0.000  0.000  0.000  0.267
tot    0.000  0.401  0.000  0.134  0.000  0.000  0.000  0.000  0.000  0.535

band    12 # energy    8.35639122 # occ.  0.00000000

ion      s     py     pz     px    dxy    dyz    dz2    dxz  x2-y2    tot
    1  0.000  0.000  0.025  0.000  0.000  0.000  0.000  0.000  0.000  0.025
    2  0.000  0.000  0.025  0.000  0.000  0.000  0.000  0.000  0.000  0.025
tot    0.000  0.000  0.049  0.000  0.000  0.000  0.000  0.000  0.000  0.049

band    13 # energy    8.87034151 # occ.  0.00000000

ion      s     py     pz     px    dxy    dyz    dz2    dxz  x2-y2    tot
    1  0.000  0.000  0.383  0.000  0.000  0.000  0.000  0.000  0.000  0.383
    2  0.000  0.000  0.383  0.000  0.000  0.000  0.000  0.000  0.000  0.383
tot    0.000  0.000  0.766  0.000  0.000  0.000  0.000  0.000  0.000  0.766

band    14 # energy    9.47279640 # occ.  0.00000000

ion      s     py     pz     px    dxy    dyz    dz2    dxz  x2-y2    tot
    1  0.009  0.000  0.000  0.000  0.000  0.000  0.000  0.000  0.000  0.009
    2  0.009  0.000  0.000  0.000  0.000  0.000  0.000  0.000  0.000  0.009
tot    0.018  0.000  0.000  0.000  0.000  0.000  0.000  0.000  0.000  0.018

band    15 # energy   10.49265862 # occ.  0.00000000

ion      s     py     pz     px    dxy    dyz    dz2    dxz  x2-y2    tot
    1  0.342  0.004  0.000  0.012  0.000  0.000  0.000  0.000  0.000  0.358
    2  0.342  0.004  0.000  0.012  0.000  0.000  0.000  0.000  0.000  0.358
tot    0.683  0.008  0.000  0.025  0.000  0.000  0.000  0.000  0.000  0.716

band    16 # energy   13.67345063 # occ.  0.00000000

ion      s     py     pz     px    dxy    dyz    dz2    dxz  x2-y2    tot
    1  0.000  0.000  0.032  0.000  0.000  0.000  0.000  0.000  0.000  0.032
    2  0.000  0.000  0.032  0.000  0.000  0.000  0.000  0.000  0.000  0.032
tot    0.000  0.000  0.064  0.000  0.000  0.000  0.000  0.000  0.000  0.064


 k-point     3 :    0.13333333 0.00000000 0.00000000     weight = 0.02666667

band     1 # energy  -21.35990594 # occ.  2.00000000

ion      s     py     pz     px    dxy    dyz    dz2    dxz  x2-y2    tot
    1  0.316  0.002  0.000  0.007  0.000  0.000  0.000  0.000  0.000  0.325
    2  0.316  0.002  0.000  0.007  0.000  0.000  0.000  0.000  0.000  0.325
tot    0.633  0.004  0.000  0.013  0.000  0.000  0.000  0.000  0.000  0.651

band     2 # energy   -9.37436486 # occ.  2.00000000

ion      s     py     pz     px    dxy    dyz    dz2    dxz  x2-y2    tot
    1  0.000  0.000  0.218  0.000  0.000  0.000  0.000  0.000  0.000  0.218
    2  0.000  0.000  0.218  0.000  0.000  0.000  0.000  0.000  0.000  0.218
tot    0.000  0.000  0.436  0.000  0.000  0.000  0.000  0.000  0.000  0.436

band     3 # energy   -6.82678624 # occ.  2.00000000

ion      s     py     pz     px    dxy    dyz    dz2    dxz  x2-y2    tot
    1  0.041  0.090  0.000  0.269  0.000  0.000  0.000  0.000  0.000  0.400
    2  0.041  0.090  0.000  0.269  0.000  0.000  0.000  0.000  0.000  0.400
tot    0.082  0.179  0.000  0.538  0.000  0.000  0.000  0.000  0.000  0.800

band     4 # energy   -6.05819804 # occ.  2.00000000

ion      s     py     pz     px    dxy    dyz    dz2    dxz  x2-y2    tot
    1  0.000  0.304  0.000  0.101  0.000  0.000  0.000  0.000  0.000  0.405
    2  0.000  0.304  0.000  0.101  0.000  0.000  0.000  0.000  0.000  0.405
tot    0.000  0.608  0.000  0.203  0.000  0.000  0.000  0.000  0.000  0.810

band     5 # energy    1.57619891 # occ.  0.00000000

ion      s     py     pz     px    dxy    dyz    dz2    dxz  x2-y2    tot
    1  0.009  0.000  0.000  0.001  0.000  0.000  0.000  0.000  0.000  0.010
    2  0.009  0.000  0.000  0.001  0.000  0.000  0.000  0.000  0.000  0.010
tot    0.018  0.001  0.000  0.002  0.000  0.000  0.000  0.000  0.000  0.020

band     6 # energy    2.47897383 # occ.  0.00000000

ion      s     py     pz     px    dxy    dyz    dz2    dxz  x2-y2    tot
    1  0.000  0.000  0.014  0.000  0.000  0.000  0.000  0.000  0.000  0.014
    2  0.000  0.000  0.014  0.000  0.000  0.000  0.000  0.000  0.000  0.014
tot    0.000  0.000  0.028  0.000  0.000  0.000  0.000  0.000  0.000  0.028

band     7 # energy    3.00249367 # occ.  0.00000000

ion      s     py     pz     px    dxy    dyz    dz2    dxz  x2-y2    tot
    1  0.002  0.000  0.000  0.000  0.000  0.000  0.000  0.000  0.000  0.003
    2  0.002  0.000  0.000  0.000  0.000  0.000  0.000  0.000  0.000  0.003
tot    0.005  0.000  0.000  0.001  0.000  0.000  0.000  0.000  0.000  0.006

band     8 # energy    4.86010600 # occ.  0.00000000

ion      s     py     pz     px    dxy    dyz    dz2    dxz  x2-y2    tot
    1  0.000  0.000  0.016  0.000  0.000  0.000  0.000  0.000  0.000  0.016
    2  0.000  0.000  0.016  0.000  0.000  0.000  0.000  0.000  0.000  0.016
tot    0.000  0.000  0.032  0.000  0.000  0.000  0.000  0.000  0.000  0.032

band     9 # energy    5.65147123 # occ.  0.00000000

ion      s     py     pz     px    dxy    dyz    dz2    dxz  x2-y2    tot
    1  0.004  0.003  0.000  0.010  0.000  0.000  0.000  0.000  0.000  0.017
    2  0.004  0.003  0.000  0.010  0.000  0.000  0.000  0.000  0.000  0.017
tot    0.007  0.007  0.000  0.020  0.000  0.000  0.000  0.000  0.000  0.034

band    10 # energy    6.20133277 # occ.  0.00000000

ion      s     py     pz     px    dxy    dyz    dz2    dxz  x2-y2    tot
    1  0.042  0.049  0.000  0.148  0.000  0.000  0.000  0.000  0.000  0.240
    2  0.042  0.049  0.000  0.148  0.000  0.000  0.000  0.000  0.000  0.240
tot    0.084  0.099  0.000  0.296  0.000  0.000  0.000  0.000  0.000  0.479

band    11 # energy    7.81962182 # occ.  0.00000000

ion      s     py     pz     px    dxy    dyz    dz2    dxz  x2-y2    tot
    1  0.000  0.207  0.000  0.069  0.000  0.000  0.000  0.000  0.000  0.277
    2  0.000  0.207  0.000  0.069  0.000  0.000  0.000  0.000  0.000  0.277
tot    0.000  0.415  0.000  0.138  0.000  0.000  0.000  0.000  0.000  0.553

band    12 # energy    7.84930508 # occ.  0.00000000

ion      s     py     pz     px    dxy    dyz    dz2    dxz  x2-y2    tot
    1  0.000  0.000  0.359  0.000  0.000  0.000  0.000  0.000  0.000  0.359
    2  0.000  0.000  0.359  0.000  0.000  0.000  0.000  0.000  0.000  0.359
tot    0.000  0.000  0.719  0.000  0.000  0.000  0.000  0.000  0.000  0.719

band    13 # energy    8.77300498 # occ.  0.00000000

ion      s     py     pz     px    dxy    dyz    dz2    dxz  x2-y2    tot
    1  0.000  0.000  0.026  0.000  0.000  0.000  0.000  0.000  0.000  0.026
    2  0.000  0.000  0.026  0.000  0.000  0.000  0.000  0.000  0.000  0.026
tot    0.000  0.000  0.052  0.000  0.000  0.000  0.000  0.000  0.000  0.052

band    14 # energy    9.90189894 # occ.  0.00000000

ion      s     py     pz     px    dxy    dyz    dz2    dxz  x2-y2    tot
    1  0.009  0.000  0.000  0.000  0.000  0.000  0.000  0.000  0.000  0.010
    2  0.009  0.000  0.000  0.000  0.000  0.000  0.000  0.000  0.000  0.010
tot    0.019  0.000  0.000  0.000  0.000  0.000  0.000  0.000  0.000  0.019

band    15 # energy   11.12171748 # occ.  0.00000000

ion      s     py     pz     px    dxy    dyz    dz2    dxz  x2-y2    tot
    1  0.288  0.017  0.000  0.051  0.000  0.000  0.000  0.000  0.000  0.356
    2  0.288  0.017  0.000  0.051  0.000  0.000  0.000  0.000  0.000  0.356
tot    0.576  0.034  0.000  0.102  0.000  0.000  0.000  0.000  0.000  0.711

band    16 # energy   14.04850671 # occ.  0.00000000

ion      s     py     pz     px    dxy    dyz    dz2    dxz  x2-y2    tot
    1  0.000  0.000  0.033  0.000  0.000  0.000  0.000  0.000  0.000  0.033
    2  0.000  0.000  0.033  0.000  0.000  0.000  0.000  0.000  0.000  0.033
tot    0.000  0.000  0.066  0.000  0.000  0.000  0.000  0.000  0.000  0.066


 k-point     4 :    0.20000000 0.00000000 0.00000000     weight = 0.02666667

band     1 # energy  -20.83768145 # occ.  2.00000000

ion      s     py     pz     px    dxy    dyz    dz2    dxz  x2-y2    tot
    1  0.308  0.005  0.000  0.015  0.000  0.000  0.000  0.000  0.000  0.328
    2  0.308  0.005  0.000  0.015  0.000  0.000  0.000  0.000  0.000  0.328
tot    0.616  0.010  0.000  0.030  0.000  0.000  0.000  0.000  0.000  0.656

band     2 # energy   -8.75735274 # occ.  2.00000000

ion      s     py     pz     px    dxy    dyz    dz2    dxz  x2-y2    tot
    1  0.000  0.000  0.220  0.000  0.000  0.000  0.000  0.000  0.000  0.220
    2  0.000  0.000  0.220  0.000  0.000  0.000  0.000  0.000  0.000  0.220
tot    0.000  0.000  0.440  0.000  0.000  0.000  0.000  0.000  0.000  0.440

band     3 # energy   -8.37810042 # occ.  2.00000000

ion      s     py     pz     px    dxy    dyz    dz2    dxz  x2-y2    tot
    1  0.075  0.078  0.000  0.235  0.000  0.000  0.000  0.000  0.000  0.388
    2  0.075  0.078  0.000  0.235  0.000  0.000  0.000  0.000  0.000  0.388
tot    0.149  0.157  0.000  0.470  0.000  0.000  0.000  0.000  0.000  0.777

band     4 # energy   -6.76443321 # occ.  2.00000000

ion      s     py     pz     px    dxy    dyz    dz2    dxz  x2-y2    tot
    1  0.000  0.300  0.000  0.100  0.000  0.000  0.000  0.000  0.000  0.400
    2  0.000  0.300  0.000  0.100  0.000  0.000  0.000  0.000  0.000  0.400
tot    0.000  0.600  0.000  0.200  0.000  0.000  0.000  0.000  0.000  0.800

band     5 # energy    2.29015192 # occ.  0.00000000

ion      s     py     pz     px    dxy    dyz    dz2    dxz  x2-y2    tot
    1  0.008  0.001  0.000  0.002  0.000  0.000  0.000  0.000  0.000  0.010
    2  0.008  0.001  0.000  0.002  0.000  0.000  0.000  0.000  0.000  0.010
tot    0.016  0.001  0.000  0.004  0.000  0.000  0.000  0.000  0.000  0.021

band     6 # energy    3.19540194 # occ.  0.00000000

ion      s     py     pz     px    dxy    dyz    dz2    dxz  x2-y2    tot
    1  0.000  0.000  0.015  0.000  0.000  0.000  0.000  0.000  0.000  0.015
    2  0.000  0.000  0.015  0.000  0.000  0.000  0.000  0.000  0.000  0.015
tot    0.000  0.000  0.029  0.000  0.000  0.000  0.000  0.000  0.000  0.029

band     7 # energy    3.72951974 # occ.  0.00000000

ion      s     py     pz     px    dxy    dyz    dz2    dxz  x2-y2    tot
    1  0.002  0.000  0.000  0.001  0.000  0.000  0.000  0.000  0.000  0.003
    2  0.002  0.000  0.000  0.001  0.000  0.000  0.000  0.000  0.000  0.003
tot    0.004  0.001  0.000  0.002  0.000  0.000  0.000  0.000  0.000  0.006

band     8 # energy    5.56228384 # occ.  0.00000000

ion      s     py     pz     px    dxy    dyz    dz2    dxz  x2-y2    tot
    1  0.000  0.000  0.020  0.000  0.000  0.000  0.000  0.000  0.000  0.020
    2  0.000  0.000  0.020  0.000  0.000  0.000  0.000  0.000  0.000  0.020
tot    0.000  0.000  0.040  0.000  0.000  0.000  0.000  0.000  0.000  0.040

band     9 # energy    5.97705127 # occ.  0.00000000

ion      s     py     pz     px    dxy    dyz    dz2    dxz  x2-y2    tot
    1  0.070  0.037  0.000  0.110  0.000  0.000  0.000  0.000  0.000  0.216
    2  0.070  0.037  0.000  0.110  0.000  0.000  0.000  0.000  0.000  0.216
tot    0.140  0.073  0.000  0.219  0.000  0.000  0.000  0.000  0.000  0.433

band    10 # energy    6.36842714 # occ.  0.00000000

ion      s     py     pz     px    dxy    dyz    dz2    dxz  x2-y2    tot
    1  0.000  0.000  0.327  0.000  0.000  0.000  0.000  0.000  0.000  0.327
    2  0.000  0.000  0.327  0.000  0.000  0.000  0.000  0.000  0.000  0.327
tot    0.000  0.000  0.654  0.000  0.000  0.000  0.000  0.000  0.000  0.654

band    11 # energy    6.43766322 # occ.  0.00000000

ion      s     py     pz     px    dxy    dyz    dz2    dxz  x2-y2    tot
    1  0.023  0.002  0.000  0.006  0.000  0.000  0.000  0.000  0.000  0.031
    2  0.023  0.002  0.000  0.006  0.000  0.000  0.000  0.000  0.000  0.031
tot    0.046  0.004  0.000  0.013  0.000  0.000  0.000  0.000  0.000  0.063

band    12 # energy    9.45996260 # occ.  0.00000000

ion      s     py     pz     px    dxy    dyz    dz2    dxz  x2-y2    tot
    1  0.000  0.000  0.027  0.000  0.000  0.000  0.000  0.000  0.000  0.027
    2  0.000  0.000  0.027  0.000  0.000  0.000  0.000  0.000  0.000  0.027
tot    0.000  0.000  0.053  0.000  0.000  0.000  0.000  0.000  0.000  0.053

band    13 # energy    9.63791370 # occ.  0.00000000

ion      s     py     pz     px    dxy    dyz    dz2    dxz  x2-y2    tot
    1  0.000  0.217  0.000  0.072  0.000  0.000  0.000  0.000  0.000  0.289
    2  0.000  0.217  0.000  0.072  0.000  0.000  0.000  0.000  0.000  0.289
tot    0.000  0.433  0.000  0.144  0.000  0.000  0.000  0.000  0.000  0.578

band    14 # energy   10.60868366 # occ.  0.00000000

ion      s     py     pz     px    dxy    dyz    dz2    dxz  x2-y2    tot
    1  0.009  0.000  0.000  0.001  0.000  0.000  0.000  0.000  0.000  0.010
    2  0.009  0.000  0.000  0.001  0.000  0.000  0.000  0.000  0.000  0.010
tot    0.019  0.001  0.000  0.002  0.000  0.000  0.000  0.000  0.000  0.021

band    15 # energy   12.12894326 # occ.  0.00000000

ion      s     py     pz     px    dxy    dyz    dz2    dxz  x2-y2    tot
    1  0.212  0.033  0.000  0.100  0.000  0.000  0.000  0.000  0.000  0.345
    2  0.212  0.033  0.000  0.100  0.000  0.000  0.000  0.000  0.000  0.345
tot    0.424  0.066  0.000  0.199  0.000  0.000  0.000  0.000  0.000  0.689

band    16 # energy   14.63204740 # occ.  0.00000000

ion      s     py     pz     px    dxy    dyz    dz2    dxz  x2-y2    tot
    1  0.000  0.000  0.036  0.000  0.000  0.000  0.000  0.000  0.000  0.036
    2  0.000  0.000  0.036  0.000  0.000  0.000  0.000  0.000  0.000  0.036
tot    0.000  0.000  0.072  0.000  0.000  0.000  0.000  0.000  0.000  0.072


 k-point     5 :    0.26666667 0.00000000 0.00000000     weight = 0.02666667

band     1 # energy  -20.11238845 # occ.  2.00000000

ion      s     py     pz     px    dxy    dyz    dz2    dxz  x2-y2    tot
    1  0.297  0.009  0.000  0.026  0.000  0.000  0.000  0.000  0.000  0.332
    2  0.297  0.009  0.000  0.026  0.000  0.000  0.000  0.000  0.000  0.332
tot    0.594  0.017  0.000  0.052  0.000  0.000  0.000  0.000  0.000  0.664

band     2 # energy  -10.11278072 # occ.  2.00000000

ion      s     py     pz     px    dxy    dyz    dz2    dxz  x2-y2    tot
    1  0.108  0.067  0.000  0.202  0.000  0.000  0.000  0.000  0.000  0.377
    2  0.108  0.067  0.000  0.202  0.000  0.000  0.000  0.000  0.000  0.377
tot    0.215  0.135  0.000  0.404  0.000  0.000  0.000  0.000  0.000  0.754

band     3 # energy   -7.91377549 # occ.  2.00000000

ion      s     py     pz     px    dxy    dyz    dz2    dxz  x2-y2    tot
    1  0.000  0.000  0.224  0.000  0.000  0.000  0.000  0.000  0.000  0.224
    2  0.000  0.000  0.224  0.000  0.000  0.000  0.000  0.000  0.000  0.224
tot    0.000  0.000  0.448  0.000  0.000  0.000  0.000  0.000  0.000  0.448

band     4 # energy   -7.45164607 # occ.  2.00000000

ion      s     py     pz     px    dxy    dyz    dz2    dxz  x2-y2    tot
    1  0.000  0.298  0.000  0.099  0.000  0.000  0.000  0.000  0.000  0.397
    2  0.000  0.298  0.000  0.099  0.000  0.000  0.000  0.000  0.000  0.397
tot    0.000  0.595  0.000  0.198  0.000  0.000  0.000  0.000  0.000  0.793

band     5 # energy    3.28713434 # occ.  0.00000000

ion      s     py     pz     px    dxy    dyz    dz2    dxz  x2-y2    tot
    1  0.007  0.001  0.000  0.003  0.000  0.000  0.000  0.000  0.000  0.011
    2  0.007  0.001  0.000  0.003  0.000  0.000  0.000  0.000  0.000  0.011
tot    0.013  0.002  0.000  0.007  0.000  0.000  0.000  0.000  0.000  0.022

band     6 # energy    4.13562901 # occ.  0.00000000

ion      s     py     pz     px    dxy    dyz    dz2    dxz  x2-y2    tot
    1  0.000  0.000  0.051  0.000  0.000  0.000  0.000  0.000  0.000  0.051
    2  0.000  0.000  0.051  0.000  0.000  0.000  0.000  0.000  0.000  0.051
tot    0.000  0.000  0.102  0.000  0.000  0.000  0.000  0.000  0.000  0.102

band     7 # energy    4.63406941 # occ.  0.00000000

ion      s     py     pz     px    dxy    dyz    dz2    dxz  x2-y2    tot
    1  0.000  0.000  0.262  0.000  0.000  0.000  0.000  0.000  0.000  0.262
    2  0.000  0.000  0.262  0.000  0.000  0.000  0.000  0.000  0.000  0.262
tot    0.000  0.000  0.525  0.000  0.000  0.000  0.000  0.000  0.000  0.525

band     8 # energy    4.74499964 # occ.  0.00000000

ion      s     py     pz     px    dxy    dyz    dz2    dxz  x2-y2    tot
    1  0.002  0.001  0.000  0.002  0.000  0.000  0.000  0.000  0.000  0.004
    2  0.002  0.001  0.000  0.002  0.000  0.000  0.000  0.000  0.000  0.004
tot    0.003  0.001  0.000  0.004  0.000  0.000  0.000  0.000  0.000  0.008

band     9 # energy    5.75416081 # occ.  0.00000000

ion      s     py     pz     px    dxy    dyz    dz2    dxz  x2-y2    tot
    1  0.126  0.026  0.000  0.078  0.000  0.000  0.000  0.000  0.000  0.230
    2  0.126  0.026  0.000  0.078  0.000  0.000  0.000  0.000  0.000  0.230
tot    0.251  0.052  0.000  0.157  0.000  0.000  0.000  0.000  0.000  0.460

band    10 # energy    6.58356974 # occ.  0.00000000

ion      s     py     pz     px    dxy    dyz    dz2    dxz  x2-y2    tot
    1  0.000  0.000  0.020  0.000  0.000  0.000  0.000  0.000  0.000  0.020
    2  0.000  0.000  0.020  0.000  0.000  0.000  0.000  0.000  0.000  0.020
tot    0.000  0.000  0.040  0.000  0.000  0.000  0.000  0.000  0.000  0.040

band    11 # energy    7.40613436 # occ.  0.00000000

ion      s     py     pz     px    dxy    dyz    dz2    dxz  x2-y2    tot
    1  0.009  0.000  0.000  0.000  0.000  0.000  0.000  0.000  0.000  0.010
    2  0.009  0.000  0.000  0.000  0.000  0.000  0.000  0.000  0.000  0.010
tot    0.019  0.000  0.000  0.001  0.000  0.000  0.000  0.000  0.000  0.019

band    12 # energy   10.40501123 # occ.  0.00000000

ion      s     py     pz     px    dxy    dyz    dz2    dxz  x2-y2    tot
    1  0.000  0.000  0.029  0.000  0.000  0.000  0.000  0.000  0.000  0.029
    2  0.000  0.000  0.029  0.000  0.000  0.000  0.000  0.000  0.000  0.029
tot    0.000  0.000  0.058  0.000  0.000  0.000  0.000  0.000  0.000  0.058

band    13 # energy   11.58977453 # occ.  0.00000000

ion      s     py     pz     px    dxy    dyz    dz2    dxz  x2-y2    tot
    1  0.008  0.001  0.000  0.003  0.000  0.000  0.000  0.000  0.000  0.012
    2  0.008  0.001  0.000  0.003  0.000  0.000  0.000  0.000  0.000  0.012
tot    0.016  0.002  0.000  0.005  0.000  0.000  0.000  0.000  0.000  0.023

band    14 # energy   11.79956817 # occ.  0.00000000

ion      s     py     pz     px    dxy    dyz    dz2    dxz  x2-y2    tot
    1  0.000  0.229  0.000  0.076  0.000  0.000  0.000  0.000  0.000  0.305
    2  0.000  0.229  0.000  0.076  0.000  0.000  0.000  0.000  0.000  0.305
tot    0.000  0.457  0.000  0.152  0.000  0.000  0.000  0.000  0.000  0.609

band    15 # energy   13.21761392 # occ.  0.00000000

ion      s     py     pz     px    dxy    dyz    dz2    dxz  x2-y2    tot
    1  0.130  0.045  0.000  0.135  0.000  0.000  0.000  0.000  0.000  0.310
    2  0.130  0.045  0.000  0.135  0.000  0.000  0.000  0.000  0.000  0.310
tot    0.261  0.090  0.000  0.269  0.000  0.000  0.000  0.000  0.000  0.620

band    16 # energy   15.26499368 # occ.  0.00000000

ion      s     py     pz     px    dxy    dyz    dz2    dxz  x2-y2    tot
    1  0.000  0.000  0.044  0.000  0.000  0.000  0.000  0.000  0.000  0.044
    2  0.000  0.000  0.044  0.000  0.000  0.000  0.000  0.000  0.000  0.044
tot    0.000  0.000  0.087  0.000  0.000  0.000  0.000  0.000  0.000  0.087


 k-point     6 :    0.33333333 0.00000000 0.00000000     weight = 0.02666667

band     1 # energy  -19.19154322 # occ.  2.00000000

ion      s     py     pz     px    dxy    dyz    dz2    dxz  x2-y2    tot
    1  0.284  0.013  0.000  0.040  0.000  0.000  0.000  0.000  0.000  0.337
    2  0.284  0.013  0.000  0.040  0.000  0.000  0.000  0.000  0.000  0.337
tot    0.568  0.026  0.000  0.079  0.000  0.000  0.000  0.000  0.000  0.674

band     2 # energy  -11.87877915 # occ.  2.00000000

ion      s     py     pz     px    dxy    dyz    dz2    dxz  x2-y2    tot
    1  0.137  0.057  0.000  0.172  0.000  0.000  0.000  0.000  0.000  0.367
    2  0.137  0.057  0.000  0.172  0.000  0.000  0.000  0.000  0.000  0.367
tot    0.274  0.115  0.000  0.344  0.000  0.000  0.000  0.000  0.000  0.733

band     3 # energy   -8.02235256 # occ.  2.00000000

ion      s     py     pz     px    dxy    dyz    dz2    dxz  x2-y2    tot