<?xml version="1.0" encoding="ISO-8859-1"?>
<modeling>
 <generator>
  <i name="program" type="string">vasp </i>
  <i name="version" type="string">5.4.4.18Apr17-6-g9f103f2a35  </i>
  <i name="subversion" type="string">(build May 21 2018 15:16:00) complex            parallel </i>
  <i name="platform" type="string">GUN_wannier90_optcell </i>
  <i name="date" type="string">2019 03 23 </i>
  <i name="time" type="string">14:21:27 </i>
 </generator>
 <incar>
  <i type="string" name="SYSTEM"> C</i>
  <i type="string" name="PREC">a</i>
  <i type="string" name="ALGO">     N ! Normal     algorithm</i>
  <i type="logical" name="LDIAG"> T  </i>
  <i type="int" name="NELM">  2000</i>
  <i type="int" name="NELMIN">     5</i>
  <i type="int" name="IBRION">    -1</i>
  <i name="EDIFF">      0.00000100</i>
  <i name="EDIFFG">     -0.01000000</i>
  <i type="int" name="NSW">     0</i>
  <i type="int" name="NBLOCK">     1</i>
  <i type="int" name="KBLOCK">     5</i>
  <i name="ENCUT">    400.00000000</i>
  <i type="int" name="NBANDS">    16</i>
  <i name="POTIM">      0.50000000</i>
  <i type="int" name="NEDOS">  3000</i>
  <i type="logical" name="LREAL"> F  </i>
  <i name="EMIN">    -15.00000000</i>
  <i name="EMAX">      5.00000000</i>
  <i type="int" name="ISMEAR">    -5</i>
  <i type="int" name="NWRITE">     1</i>
  <i type="logical" name="LCORR"> T  </i>
  <i type="logical" name="LWAVE"> F  </i>
  <i type="logical" name="LCHARG"> F  </i>
  <i type="int" name="LORBIT">    11</i>
  <v type="int" name="KPOINT_BSE">    -1     0     0     0</v>
  <i type="int" name="NELM">  2000</i>
  <i type="logical" name="LWANNIER90"> T  </i>
 </incar>
 <structure name="primitive_cell" >
  <crystal>
   <varray name="basis" >
    <v>       2.46413828       0.00000000       0.00000000 </v>
    <v>      -1.23206914       2.13400635       0.00000000 </v>
    <v>       0.00000000       0.00000000      15.00000000 </v>
   </varray>
   <i name="volume">     78.87730093 </i>
   <varray name="rec_basis" >
    <v>       0.40582138       0.23430108      -0.00000000 </v>
    <v>       0.00000000       0.46860217       0.00000000 </v>
    <v>       0.00000000      -0.00000000       0.06666667 </v>
   </varray>
  </crystal>
  <varray name="positions" >
   <v>       0.00000000       0.00000000       0.14475063 </v>
   <v>      -0.33333302       0.33333300       0.14475063 </v>
  </varray>
 </structure>
 <varray name="primitive_index" >
  <v type="int" >        1 </v>
  <v type="int" >        2 </v>
 </varray>
 <kpoints>
  <generation param="Gamma">
   <v type="int" name="divisions">      15       15        1 </v>
   <v name="usershift">      0.00000000       0.00000000       0.00000000 </v>
   <v name="genvec1">      0.06666667      -0.00000000       0.00000000 </v>
   <v name="genvec2">      0.00000000       0.06666667       0.00000000 </v>
   <v name="genvec3">      0.00000000       0.00000000       1.00000000 </v>
   <v name="shift">      0.00000000       0.00000000       0.00000000 </v>
  </generation>
  <varray name="kpointlist" >
   <v>       0.00000000       0.00000000       0.00000000 </v>
   <v>       0.06666667       0.00000000       0.00000000 </v>
   <v>       0.13333333       0.00000000       0.00000000 </v>
   <v>       0.20000000       0.00000000       0.00000000 </v>
   <v>       0.26666667       0.00000000       0.00000000 </v>
   <v>       0.33333333       0.00000000       0.00000000 </v>
   <v>       0.40000000       0.00000000       0.00000000 </v>
   <v>       0.46666667       0.00000000       0.00000000 </v>
   <v>       0.06666667       0.06666667       0.00000000 </v>
   <v>       0.13333333       0.06666667       0.00000000 </v>
   <v>       0.20000000       0.06666667       0.00000000 </v>
   <v>       0.26666667       0.06666667       0.00000000 </v>
   <v>       0.33333333       0.06666667       0.00000000 </v>
   <v>       0.40000000       0.06666667       0.00000000 </v>
   <v>       0.46666667       0.06666667       0.00000000 </v>
   <v>       0.13333333       0.13333333       0.00000000 </v>
   <v>       0.20000000       0.13333333       0.00000000 </v>
   <v>       0.26666667       0.13333333       0.00000000 </v>
   <v>       0.33333333       0.13333333       0.00000000 </v>
   <v>       0.40000000       0.13333333       0.00000000 </v>
   <v>       0.20000000       0.20000000       0.00000000 </v>
   <v>       0.26666667       0.20000000       0.00000000 </v>
   <v>       0.33333333       0.20000000       0.00000000 </v>
   <v>       0.40000000       0.20000000       0.00000000 </v>
   <v>       0.26666667       0.26666667       0.00000000 </v>
   <v>       0.33333333       0.26666667       0.00000000 </v>
   <v>       0.33333333       0.33333333       0.00000000 </v>
  </varray>
  <varray name="weights" >
   <v>       0.00444444 </v>
   <v>       0.02666667 </v>
   <v>       0.02666667 </v>
   <v>       0.02666667 </v>
   <v>       0.02666667 </v>
   <v>       0.02666667 </v>
   <v>       0.02666667 </v>
   <v>       0.02666667 </v>
   <v>       0.02666667 </v>
   <v>       0.05333333 </v>
   <v>       0.05333333 </v>
   <v>       0.05333333 </v>
   <v>       0.05333333 </v>
   <v>       0.05333333 </v>
   <v>       0.02666667 </v>
   <v>       0.02666667 </v>
   <v>       0.05333333 </v>
   <v>       0.05333333 </v>
   <v>       0.05333333 </v>
   <v>       0.05333333 </v>
   <v>       0.02666667 </v>
   <v>       0.05333333 </v>
   <v>       0.05333333 </v>
   <v>       0.02666667 </v>
   <v>       0.02666667 </v>
   <v>       0.05333333 </v>
   <v>       0.00888889 </v>
  </varray>
  <varray name="tetrahedronlist"  type="int" >
   <v type="int" >       12        2        2        2        9 </v>
   <v type="int" >       12        1        2        2        2 </v>
   <v type="int" >        6        1        1        2        2 </v>
   <v type="int" >        6        2        2        9        9 </v>
   <v type="int" >       12        3        9        9       10 </v>
   <v type="int" >       12        2        3        9        9 </v>
   <v type="int" >       12        2        2        3        9 </v>
   <v type="int" >       12        3        9       10       10 </v>
   <v type="int" >       12        3        3        9       10 </v>
   <v type="int" >       12        2        3        3        9 </v>
   <v type="int" >       12        4       10       10       11 </v>
   <v type="int" >       12        3        4       10       10 </v>
   <v type="int" >       12        3        3        4       10 </v>
   <v type="int" >       12        4       10       11       11 </v>
   <v type="int" >       12        4        4       10       11 </v>
   <v type="int" >       12        3        4        4       10 </v>
   <v type="int" >       12        5       11       11       12 </v>
   <v type="int" >       12        4        5       11       11 </v>
   <v type="int" >       12        4        4        5       11 </v>
   <v type="int" >       12        5       11       12       12 </v>
   <v type="int" >       12        5        5       11       12 </v>
   <v type="int" >       12        4        5        5       11 </v>
   <v type="int" >       12        6       12       12       13 </v>
   <v type="int" >       12        5        6       12       12 </v>
   <v type="int" >       12        5        5        6       12 </v>
   <v type="int" >       12        6       12       13       13 </v>
   <v type="int" >       12        6        6       12       13 </v>
   <v type="int" >       12        5        6        6       12 </v>
   <v type="int" >       12        7       13       13       14 </v>
   <v type="int" >       12        6        7       13       13 </v>
   <v type="int" >       12        6        6        7       13 </v>
   <v type="int" >       12        7       13       14       14 </v>
   <v type="int" >       12        7        7       13       14 </v>
   <v type="int" >       12        6        7        7       13 </v>
   <v type="int" >       12        8       14       14       15 </v>
   <v type="int" >       12        7        8       14       14 </v>
   <v type="int" >       12        7        7        8       14 </v>
   <v type="int" >       12        8       14       15       15 </v>
   <v type="int" >       12        8        8       14       15 </v>
   <v type="int" >       12        7        8        8       14 </v>
   <v type="int" >        6        8        8       15       15 </v>
   <v type="int" >       12        8        8        8       15 </v>
   <v type="int" >       12       10       10       10       16 </v>
   <v type="int" >       12        9       10       10       10 </v>
   <v type="int" >        6        9        9       10       10 </v>
   <v type="int" >        6       10       10       16       16 </v>
   <v type="int" >       12       11       16       16       17 </v>
   <v type="int" >       12       10       11       16       16 </v>
   <v type="int" >       12       10       10       11       16 </v>
   <v type="int" >       12       11       16       17       17 </v>
   <v type="int" >       12       11       11       16       17 </v>
   <v type="int" >       12       10       11       11       16 </v>
   <v type="int" >       12       12       17       17       18 </v>
   <v type="int" >       12       11       12       17       17 </v>
   <v type="int" >       12       11       11       12       17 </v>
   <v type="int" >       12       12       17       18       18 </v>
   <v type="int" >       12       12       12       17       18 </v>
   <v type="int" >       12       11       12       12       17 </v>
   <v type="int" >       12       13       18       18       19 </v>
   <v type="int" >       12       12       13       18       18 </v>
   <v type="int" >       12       12       12       13       18 </v>
   <v type="int" >       12       13       18       19       19 </v>
   <v type="int" >       12       13       13       18       19 </v>
   <v type="int" >       12       12       13       13       18 </v>
   <v type="int" >       12       14       19       19       20 </v>
   <v type="int" >       12       13       14       19       19 </v>
   <v type="int" >       12       13       13       14       19 </v>
   <v type="int" >       12       14       19       20       20 </v>
   <v type="int" >       12       14       14       19       20 </v>
   <v type="int" >       12       13       14       14       19 </v>
   <v type="int" >       12       15       20       20       20 </v>
   <v type="int" >       12       14       15       20       20 </v>
   <v type="int" >       12       14       14       15       20 </v>
   <v type="int" >        6       15       15       20       20 </v>
   <v type="int" >       12       14       15       15       20 </v>
   <v type="int" >       12       17       17       17       21 </v>
   <v type="int" >       12       16       17       17       17 </v>
   <v type="int" >        6       16       16       17       17 </v>
   <v type="int" >        6       17       17       21       21 </v>
   <v type="int" >       12       18       21       21       22 </v>
   <v type="int" >       12       17       18       21       21 </v>
   <v type="int" >       12       17       17       18       21 </v>
   <v type="int" >       12       18       21       22       22 </v>
   <v type="int" >       12       18       18       21       22 </v>
   <v type="int" >       12       17       18       18       21 </v>
   <v type="int" >       12       19       22       22       23 </v>
   <v type="int" >       12       18       19       22       22 </v>
   <v type="int" >       12       18       18       19       22 </v>
   <v type="int" >       12       19       22       23       23 </v>
   <v type="int" >       12       19       19       22       23 </v>
   <v type="int" >       12       18       19       19       22 </v>
   <v type="int" >       12       20       23       23       24 </v>
   <v type="int" >       12       19       20       23       23 </v>
   <v type="int" >       12       19       19       20       23 </v>
   <v type="int" >       12       20       23       24       24 </v>
   <v type="int" >       12       20       20       23       24 </v>
   <v type="int" >       12       19       20       20       23 </v>
   <v type="int" >        6       20       20       24       24 </v>
   <v type="int" >       12       20       20       20       24 </v>
   <v type="int" >       12       22       22       22       25 </v>
   <v type="int" >       12       21       22       22       22 </v>
   <v type="int" >        6       21       21       22       22 </v>
   <v type="int" >        6       22       22       25       25 </v>
   <v type="int" >       12       23       25       25       26 </v>
   <v type="int" >       12       22       23       25       25 </v>
   <v type="int" >       12       22       22       23       25 </v>
   <v type="int" >       12       23       25       26       26 </v>
   <v type="int" >       12       23       23       25       26 </v>
   <v type="int" >       12       22       23       23       25 </v>
   <v type="int" >       12       24       26       26       26 </v>
   <v type="int" >       12       23       24       26       26 </v>
   <v type="int" >       12       23       23       24       26 </v>
   <v type="int" >        6       24       24       26       26 </v>
   <v type="int" >       12       23       24       24       26 </v>
   <v type="int" >       24       26       26       26       27 </v>
   <v type="int" >       12       25       26       26       26 </v>
   <v type="int" >        6       25       25       26       26 </v>
   <v type="int" >       12       26       26       27       27 </v>
  </varray>
  <i name="volumeweight">      0.00074074 </i>
 </kpoints>
 <parameters>
  <separator name="general" >
   <i type="string" name="SYSTEM">C</i>
   <i type="logical" name="LCOMPAT"> F  </i>
  </separator>
  <separator name="electronic" >
   <i type="string" name="PREC">a</i>
   <i name="ENMAX">    400.00000000</i>
   <i name="ENAUG">    644.87300000</i>
   <i name="EDIFF">      0.00000100</i>
   <i type="int" name="IALGO">    38</i>
   <i type="int" name="IWAVPR">    10</i>
   <i type="int" name="NBANDS">    16</i>
   <i name="NELECT">      8.00000000</i>
   <i type="int" name="TURBO">     0</i>
   <i type="int" name="IRESTART">     0</i>
   <i type="int" name="NREBOOT">     0</i>
   <i type="int" name="NMIN">     0</i>
   <i name="EREF">      0.00000000</i>
   <separator name="electronic smearing" >
    <i type="int" name="ISMEAR">    -5</i>
    <i name="SIGMA">      0.20000000</i>
    <i name="KSPACING">      0.50000000</i>
    <i type="logical" name="KGAMMA"> T  </i>
   </separator>
   <separator name="electronic projectors" >
    <i type="logical" name="LREAL"> F  </i>
    <v name="ROPT">      0.00000000</v>
    <i type="int" name="LMAXPAW">  -100</i>
    <i type="int" name="LMAXMIX">     2</i>
    <i type="logical" name="NLSPLINE"> F  </i>
   </separator>
   <separator name="electronic startup" >
    <i type="int" name="ISTART">     1</i>
    <i type="int" name="ICHARG">     0</i>
    <i type="int" name="INIWAV">     1</i>
   </separator>
   <separator name="electronic spin" >
    <i type="int" name="ISPIN">     1</i>
    <i type="logical" name="LNONCOLLINEAR"> F  </i>
    <v name="MAGMOM">      1.00000000      1.00000000</v>
    <i name="NUPDOWN">     -1.00000000</i>
    <i type="logical" name="LSORBIT"> F  </i>
    <v name="SAXIS">      0.00000000      0.00000000      1.00000000</v>
    <i type="logical" name="LSPIRAL"> F  </i>
    <v name="QSPIRAL">      0.00000000      0.00000000      0.00000000</v>
    <i type="logical" name="LZEROZ"> F  </i>
   </separator>
   <separator name="electronic exchange-correlation" >
    <i type="logical" name="LASPH"> F  </i>
    <i type="logical" name="LMETAGGA"> F  </i>
   </separator>
   <separator name="electronic convergence" >
    <i type="int" name="NELM">  2000</i>
    <i type="int" name="NELMDL">     0</i>
    <i type="int" name="NELMIN">     5</i>
    <i name="ENINI">    400.00000000</i>
    <separator name="electronic convergence detail" >
     <i type="logical" name="LDIAG"> T  </i>
     <i type="logical" name="LSUBROT"> F  </i>
     <i name="WEIMIN">      0.00000000</i>
     <i name="EBREAK">      0.00000002</i>
     <i name="DEPER">      0.30000000</i>
     <i type="int" name="NRMM">     4</i>
     <i name="TIME">      0.40000000</i>
    </separator>
   </separator>
   <separator name="electronic mixer" >
    <i name="AMIX">      0.40000000</i>
    <i name="BMIX">      1.00000000</i>
    <i name="AMIN">      0.10000000</i>
    <i name="AMIX_MAG">      1.60000000</i>
    <i name="BMIX_MAG">      1.00000000</i>
    <separator name="electronic mixer details" >
     <i type="int" name="IMIX">     4</i>
     <i type="logical" name="MIXFIRST"> F  </i>
     <i type="int" name="MAXMIX">   -45</i>
     <i name="WC">    100.00000000</i>
     <i type="int" name="INIMIX">     1</i>
     <i type="int" name="MIXPRE">     1</i>
     <i type="int" name="MREMOVE">     5</i>
    </separator>
   </separator>
   <separator name="electronic dipolcorrection" >
    <i type="logical" name="LDIPOL"> F  </i>
    <i type="logical" name="LMONO"> F  </i>
    <i type="int" name="IDIPOL">     0</i>
    <i name="EPSILON">      1.00000000</i>
    <v name="DIPOL">   -100.00000000   -100.00000000   -100.00000000</v>
    <i name="EFIELD">      0.00000000</i>
   </separator>
  </separator>
  <separator name="grids" >
   <i type="int" name="NGX">    16</i>
   <i type="int" name="NGY">    16</i>
   <i type="int" name="NGZ">    98</i>
   <i type="int" name="NGXF">    32</i>
   <i type="int" name="NGYF">    32</i>
   <i type="int" name="NGZF">   196</i>
   <i type="logical" name="ADDGRID"> F  </i>
  </separator>
  <separator name="ionic" >
   <i type="int" name="NSW">     0</i>
   <i type="int" name="IBRION">    -1</i>
   <i type="int" name="MDALGO">     0</i>
   <i type="int" name="ISIF">     2</i>
   <i name="PSTRESS">      0.00000000</i>
   <i name="EDIFFG">     -0.01000000</i>
   <i type="int" name="NFREE">     0</i>
   <i name="POTIM">      0.50000000</i>
   <i name="SMASS">     -3.00000000</i>
   <i name="SCALEE">      1.00000000</i>
  </separator>
  <separator name="ionic md" >
   <i name="TEBEG">      0.00010000</i>
   <i name="TEEND">      0.00010000</i>
   <i type="int" name="NBLOCK">     1</i>
   <i type="int" name="KBLOCK">     1</i>
   <i type="int" name="NPACO">   256</i>
   <i name="APACO">     16.00000000</i>
  </separator>
  <separator name="symmetry" >
   <i type="int" name="ISYM">     2</i>
   <i name="SYMPREC">      0.00001000</i>
  </separator>
  <separator name="dos" >
   <i type="int" name="LORBIT">    11</i>
   <v name="RWIGS">     -1.00000000</v>
   <i type="int" name="NEDOS">  3000</i>
   <i name="EMIN">    -15.00000000</i>
   <i name="EMAX">      5.00000000</i>
   <i name="EFERMI">      0.00000000</i>
  </separator>
  <separator name="writing" >
   <i type="int" name="NWRITE">     1</i>
   <i type="logical" name="LWAVE"> F  </i>
   <i type="logical" name="LDOWNSAMPLE"> F  </i>
   <i type="logical" name="LCHARG"> F  </i>
   <i type="logical" name="LPARD"> F  </i>
   <i type="logical" name="LVTOT"> F  </i>
   <i type="logical" name="LVHAR"> F  </i>
   <i type="logical" name="LELF"> F  </i>
   <i type="logical" name="LOPTICS"> F  </i>
   <v name="STM">      0.00000000      0.00000000      0.00000000      0.00000000      0.00000000      0.00000000      0.00000000</v>
  </separator>
  <separator name="performance" >
   <i type="int" name="NPAR">     2</i>
   <i type="int" name="NSIM">     4</i>
   <i type="int" name="NBLK">    -1</i>
   <i type="logical" name="LPLANE"> T  </i>
   <i type="logical" name="LSCALAPACK"> T  </i>
   <i type="logical" name="LSCAAWARE"> F  </i>
   <i type="logical" name="LSCALU"> F  </i>
   <i type="logical" name="LASYNC"> F  </i>
   <i type="logical" name="LORBITALREAL"> F  </i>
  </separator>
  <separator name="miscellaneous" >
   <i type="int" name="IDIOT">     3</i>
   <i type="int" name="ISPECIAL">     0</i>
   <i type="logical" name="LMUSIC"> F  </i>
   <v name="POMASS">     12.01100000</v>
   <v name="DARWINR">      0.00000000</v>
   <v name="DARWINV">      1.00000000</v>
   <i type="logical" name="LCORR"> T  </i>
  </separator>
  <i type="logical" name="GGA_COMPAT"> T  </i>
  <i type="logical" name="LBERRY"> F  </i>
  <i type="int" name="ICORELEVEL">     0</i>
  <i type="logical" name="LDAU"> F  </i>
  <i type="int" name="I_CONSTRAINED_M">     0</i>
  <separator name="electronic exchange-correlation" >
   <i type="string" name="GGA">--</i>
   <i type="int" name="VOSKOWN">     0</i>
   <i type="logical" name="LHFCALC"> F  </i>
   <i type="string" name="PRECFOCK"></i>
   <i type="logical" name="LSYMGRAD"> F  </i>
   <i type="logical" name="LHFONE"> F  </i>
   <i type="logical" name="LRHFCALC"> F  </i>
   <i type="logical" name="LTHOMAS"> F  </i>
   <i type="logical" name="LMODELHF"> F  </i>
   <i name="ENCUT4O">     -1.00000000</i>
   <i type="int" name="EXXOEP">     0</i>
   <i type="int" name="FOURORBIT">     0</i>
   <i name="AEXX">      0.00000000</i>
   <i name="HFALPHA">      0.00000000</i>
   <i name="MCALPHA">      0.00000000</i>
   <i name="ALDAX">      1.00000000</i>
   <i name="AGGAX">      1.00000000</i>
   <i name="ALDAC">      1.00000000</i>
   <i name="AGGAC">      1.00000000</i>
   <i type="int" name="NKREDX">     1</i>
   <i type="int" name="NKREDY">     1</i>
   <i type="int" name="NKREDZ">     1</i>
   <i type="logical" name="SHIFTRED"> F  </i>
   <i type="logical" name="ODDONLY"> F  </i>
   <i type="logical" name="EVENONLY"> F  </i>
   <i type="int" name="LMAXFOCK">     0</i>
   <i type="int" name="NMAXFOCKAE">     0</i>
   <i type="logical" name="LFOCKAEDFT"> F  </i>
   <i name="HFSCREEN">      0.00000000</i>
   <i name="HFSCREENC">      0.00000000</i>
   <i type="int" name="NBANDSGWLOW">     0</i>
  </separator>
  <separator name="vdW DFT" >
   <i type="logical" name="LUSE_VDW"> F  </i>
   <i name="Zab_VDW">     -0.84910000</i>
   <i name="PARAM1">      0.12340000</i>
   <i name="PARAM2">      1.00000000</i>
   <i name="PARAM3">      0.00000000</i>
  </separator>
  <separator name="model GW" >
   <i type="int" name="MODEL_GW">     0</i>
   <i name="MODEL_EPS0">     23.66319028</i>
   <i name="MODEL_ALPHA">      1.00000000</i>
  </separator>
  <separator name="linear response parameters" >
   <i type="logical" name="LEPSILON"> F  </i>
   <i type="logical" name="LRPA"> F  </i>
   <i type="logical" name="LNABLA"> F  </i>
   <i type="logical" name="LVEL"> F  </i>
   <i type="int" name="KINTER">     0</i>
   <i name="CSHIFT">      0.10000000</i>
   <i name="OMEGAMAX">     -1.00000000</i>
   <i name="DEG_THRESHOLD">      0.00200000</i>
   <i name="RTIME">     -0.10000000</i>
   <i name="WPLASMAI">      0.00000000</i>
   <v name="DFIELD">      0.00000000      0.00000000      0.00000000</v>
   <v name="WPLASMA">      0.00000000      0.00000000      0.00000000      0.00000000      0.00000000      0.00000000      0.00000000      0.00000000      0.00000000</v>
  </separator>
  <separator name="orbital magnetization" >
   <i type="logical" name="NUCIND"> F  </i>
   <v name="MAGPOS">      0.00000000      0.00000000      0.00000000</v>
   <i type="logical" name="LNICSALL"> T  </i>
   <i type="logical" name="ORBITALMAG"> F  </i>
   <i type="logical" name="LMAGBLOCH"> F  </i>
   <i type="logical" name="LCHIMAG"> F  </i>
   <i type="logical" name="LGAUGE"> T  </i>
   <i type="int" name="MAGATOM">     0</i>
   <v name="MAGDIPOL">      0.00000000      0.00000000      0.00000000</v>
   <v name="AVECCONST">      0.00000000      0.00000000      0.00000000</v>
  </separator>
  <separator name="response functions" >
   <i type="logical" name="LADDER"> F  </i>
   <i type="logical" name="LRPAFORCE"> F  </i>
   <i type="logical" name="LFXC"> F  </i>
   <i type="logical" name="LHARTREE"> T  </i>
   <i type="int" name="IBSE">     0</i>
   <v type="int" name="KPOINT">    -1     0     0     0</v>
   <i type="logical" name="LTCTE"> F  </i>
   <i type="logical" name="LTETE"> F  </i>
   <i type="logical" name="LTRIPLET"> F  </i>
   <i type="logical" name="LFXCEPS"> F  </i>
   <i type="logical" name="LFXHEG"> F  </i>
   <i type="int" name="NATURALO">     2</i>
   <i type="logical" name="L2ORDER"> F  </i>
   <i type="logical" name="LMP2LT"> F  </i>
   <i type="logical" name="LUSEW"> F  </i>
   <i name="ENCUTGW">     -2.00000000</i>
   <i name="ENCUTGWSOFT">     -2.00000000</i>
   <i name="ENCUTLF">     -1.00000000</i>
   <i type="int" name="LMAXMP2">    -1</i>
   <i name="SCISSOR">      0.00000000</i>
   <i type="int" name="NOMEGA">     0</i>
   <i type="int" name="NOMEGAR">     0</i>
   <i type="int" name="NBANDSGW">    -1</i>
   <i type="int" name="NBANDSO">    -1</i>
   <i type="int" name="NBANDSV">    -1</i>
   <i type="int" name="NELM">  2000</i>
   <i type="int" name="NELMHF">     1</i>
   <i type="int" name="DIM">     3</i>
   <i type="int" name="ANTIRES">     0</i>
   <i name="OMEGAMAX">    -30.00000000</i>
   <i name="OMEGAMIN">    -30.00000000</i>
   <i name="OMEGATL">   -200.00000000</i>
   <i type="int" name="OMEGAGRID">   140</i>
   <i name="CSHIFT">     -0.10000000</i>
   <i type="logical" name="SELFENERGY"> F  </i>
   <i type="logical" name="LSPECTRAL"> F  </i>
   <i type="logical" name="LSPECTRALGW"> F  </i>
   <i type="logical" name="LSINGLES"> F  </i>
   <i type="logical" name="LFERMIGW"> F  </i>
   <i type="logical" name="ODDONLYGW"> F  </i>
   <i type="logical" name="EVENONLYGW"> F  </i>
   <i type="int" name="NKREDLFX">     1</i>
   <i type="int" name="NKREDLFY">     1</i>
   <i type="int" name="NKREDLFZ">     1</i>
   <i type="int" name="MAXMEM">  2800</i>
   <i type="int" name="TELESCOPE">     0</i>
   <i type="int" name="TAUPAR">     1</i>
   <i type="int" name="OMEGAPAR">    -1</i>
   <i name="LAMBDA">      1.00000000</i>
  </separator>
  <separator name="External order field" >
   <i name="OFIELD_KAPPA">      0.00000000</i>
   <v name="OFIELD_K">      0.00000000      0.00000000      0.00000000</v>
   <i name="OFIELD_Q6_NEAR">      0.00000000</i>
   <i name="OFIELD_Q6_FAR">      0.00000000</i>
   <i name="OFIELD_A">      0.00000000</i>
  </separator>
 </parameters>
 <atominfo>
  <atoms>       2 </atoms>
  <types>       1 </types>
  <array name="atoms" >
   <dimension dim="1">ion</dimension>
   <field type="string">element</field>
   <field type="int">atomtype</field>
   <set>
    <rc><c>C </c><c>   1</c></rc>
    <rc><c>C </c><c>   1</c></rc>
   </set>
  </array>
  <array name="atomtypes" >
   <dimension dim="1">type</dimension>
   <field type="int">atomspertype</field>
   <field type="string">element</field>
   <field>mass</field>
   <field>valence</field>
   <field type="string">pseudopotential</field>
   <set>
    <rc><c>   2</c><c>C </c><c>     12.01100000</c><c>      4.00000000</c><c>  PAW_PBE C 08Apr2002                   </c></rc>
   </set>
  </array>
 </atominfo>
 <structure name="initialpos" >
  <crystal>
   <varray name="basis" >
    <v>       2.46413828       0.00000000       0.00000000 </v>
    <v>      -1.23206914       2.13400635       0.00000000 </v>
    <v>       0.00000000       0.00000000      15.00000000 </v>
   </varray>
   <i name="volume">     78.87730093 </i>
   <varray name="rec_basis" >
    <v>       0.40582138       0.23430108      -0.00000000 </v>
    <v>       0.00000000       0.46860217       0.00000000 </v>
    <v>       0.00000000      -0.00000000       0.06666667 </v>
   </varray>
  </crystal>
  <varray name="positions" >
   <v>       0.00000000       0.00000000       0.14475063 </v>
   <v>       0.66666698       0.33333300       0.14475063 </v>
  </varray>
 </structure>
 <calculation>
  <scstep>
   <time name="dav">    1.05    1.06</time>
   <time name="total">    1.19    1.20</time>
   <energy>
    <i name="alphaZ">      4.16579751 </i>
    <i name="ewald">    838.31313047 </i>
    <i name="hartreedc">  -1090.27462118 </i>
    <i name="XCdc">     27.55628023 </i>
    <i name="pawpsdc">    859.68989938 </i>
    <i name="pawaedc">   -861.04295612 </i>
    <i name="eentropy">      0.00000000 </i>
    <i name="bandstr">    -91.12266090 </i>
    <i name="atom">    294.25444774 </i>
    <i name="e_fr_energy">    -18.46068287 </i>
    <i name="e_wo_entrp">    -18.46068287 </i>
    <i name="e_0_energy">    -18.46068287 </i>
   </energy>
  </scstep>
  <scstep>
   <time name="dav">    1.19    1.26</time>
   <time name="total">    1.30    1.41</time>
   <energy>
    <i name="e_fr_energy">    -18.46068294 </i>
    <i name="e_wo_entrp">    -18.46068294 </i>
    <i name="e_0_energy">    -18.46068294 </i>
   </energy>
  </scstep>
  <scstep>
   <time name="dav">    1.03    1.11</time>
   <time name="total">    1.12    1.24</time>
   <energy>
    <i name="e_fr_energy">    -18.46068303 </i>
    <i name="e_wo_entrp">    -18.46068303 </i>
    <i name="e_0_energy">    -18.46068303 </i>
   </energy>
  </scstep>
  <scstep>
   <time name="dav">    0.82    0.86</time>
   <time name="total">    0.92    0.96</time>
   <energy>
    <i name="e_fr_energy">    -18.46068303 </i>
    <i name="e_wo_entrp">    -18.46068303 </i>
    <i name="e_0_energy">    -18.46068303 </i>
   </energy>
  </scstep>
  <scstep>
   <time name="dav">    0.72    0.77</time>
   <time name="total">    0.77    0.83</time>
   <energy>
    <i name="alphaZ">      4.16579751 </i>
    <i name="ewald">    838.31313047 </i>
    <i name="hartreedc">  -1090.27481188 </i>
    <i name="XCdc">     27.55628636 </i>
    <i name="pawpsdc">    859.68934130 </i>
    <i name="pawaedc">   -861.04239899 </i>
    <i name="eentropy">      0.00000000 </i>
    <i name="bandstr">    -91.12247559 </i>
    <i name="atom">    294.25444774 </i>
    <i name="e_fr_energy">    -18.46068308 </i>
    <i name="e_wo_entrp">    -18.46068308 </i>
    <i name="e_0_energy">    -18.46068308 </i>
   </energy>
  </scstep>
  <structure>
   <crystal>
    <varray name="basis" >
     <v>       2.46413828       0.00000000       0.00000000 </v>
     <v>      -1.23206914       2.13400635       0.00000000 </v>
     <v>       0.00000000       0.00000000      15.00000000 </v>
    </varray>
    <i name="volume">     78.87730093 </i>
    <varray name="rec_basis" >
     <v>       0.40582138       0.23430108      -0.00000000 </v>
     <v>       0.00000000       0.46860217       0.00000000 </v>
     <v>       0.00000000      -0.00000000       0.06666667 </v>
    </varray>
   </crystal>
   <varray name="positions" >
    <v>       0.00000000       0.00000000       0.14475063 </v>
    <v>       0.66666698       0.33333300       0.14475063 </v>
   </varray>
  </structure>
  <varray name="forces" >
   <v>       0.00000000       0.00000000      -0.00000000 </v>
   <v>      -0.00000000      -0.00000000       0.00000000 </v>
  </varray>
  <varray name="stress" >
   <v>      -0.09587618       0.00000000       0.00000000 </v>
   <v>       0.00000000      -0.09587618      -0.00000000 </v>
   <v>      -0.00000000       0.00000000      -5.69235902 </v>
  </varray>
  <energy>
   <i name="e_fr_energy">    -18.46068308 </i>
   <i name="e_wo_entrp">    -18.46068308 </i>
   <i name="e_0_energy">      0.00000000 </i>
  </energy>
  <time name="totalsc">   23.30   24.05</time>
  <eigenvalues>
   <array>
    <dimension dim="1">band</dimension>
    <dimension dim="2">kpoint</dimension>
    <dimension dim="3">spin</dimension>
    <field>eigene</field>
    <field>occ</field>
    <set>
     <set comment="spin 1">
      <set comment="kpoint 1">
       <r>  -21.7799    1.0000 </r>
       <r>   -9.8751    1.0000 </r>
       <r>   -5.2698    1.0000 </r>
       <r>   -5.2697    1.0000 </r>
       <r>    1.0046    0.0000 </r>
       <r>    1.9031    0.0000 </r>
       <r>    2.4207    0.0000 </r>
       <r>    4.2884    0.0000 </r>
       <r>    5.1001    0.0000 </r>
       <r>    6.1192    0.0000 </r>
       <r>    6.1192    0.0000 </r>
       <r>    8.2173    0.0000 </r>
       <r>    9.2375    0.0000 </r>
       <r>    9.3284    0.0000 </r>
       <r>   10.2989    0.0000 </r>
       <r>   13.5447    0.0000 </r>
      </set>
      <set comment="kpoint 2">
       <r>  -21.6748    1.0000 </r>
       <r>   -9.7491    1.0000 </r>
       <r>   -5.6963    1.0000 </r>
       <r>   -5.4928    1.0000 </r>
       <r>    1.1475    0.0000 </r>
       <r>    2.0473    0.0000 </r>
       <r>    2.5662    0.0000 </r>
       <r>    4.4317    0.0000 </r>
       <r>    5.2396    0.0000 </r>
       <r>    6.1714    0.0000 </r>
       <r>    6.5736    0.0000 </r>
       <r>    8.3564    0.0000 </r>
       <r>    8.8703    0.0000 </r>
       <r>    9.4728    0.0000 </r>
       <r>   10.4927    0.0000 </r>
       <r>   13.6735    0.0000 </r>
      </set>
      <set comment="kpoint 3">
       <r>  -21.3599    1.0000 </r>
       <r>   -9.3744    1.0000 </r>
       <r>   -6.8268    1.0000 </r>
       <r>   -6.0582    1.0000 </r>
       <r>    1.5762    0.0000 </r>
       <r>    2.4790    0.0000 </r>
       <r>    3.0025    0.0000 </r>
       <r>    4.8601    0.0000 </r>
       <r>    5.6515    0.0000 </r>
       <r>    6.2013    0.0000 </r>
       <r>    7.8196    0.0000 </r>
       <r>    7.8493    0.0000 </r>
       <r>    8.7730    0.0000 </r>
       <r>    9.9019    0.0000 </r>
       <r>   11.1217    0.0000 </r>
       <r>   14.0485    0.0000 </r>
      </set>
      <set comment="kpoint 4">
       <r>  -20.8377    1.0000 </r>
       <r>   -8.7574    1.0000 </r>
       <r>   -8.3781    1.0000 </r>
       <r>   -6.7644    1.0000 </r>
       <r>    2.2902    0.0000 </r>
       <r>    3.1954    0.0000 </r>
       <r>    3.7295    0.0000 </r>
       <r>    5.5623    0.0000 </r>
       <r>    5.9771    0.0000 </r>
       <r>    6.3684    0.0000 </r>
       <r>    6.4377    0.0000 </r>
       <r>    9.4600    0.0000 </r>
       <r>    9.6379    0.0000 </r>
       <r>   10.6087    0.0000 </r>
       <r>   12.1289    0.0000 </r>
       <r>   14.6320    0.0000 </r>
      </set>
      <set comment="kpoint 5">
       <r>  -20.1124    1.0000 </r>
       <r>  -10.1128    1.0000 </r>
       <r>   -7.9138    1.0000 </r>
       <r>   -7.4516    1.0000 </r>
       <r>    3.2871    0.0000 </r>
       <r>    4.1356    0.0000 </r>
       <r>    4.6341    0.0000 </r>
       <r>    4.7450    0.0000 </r>
       <r>    5.7542    0.0000 </r>
       <r>    6.5836    0.0000 </r>
       <r>    7.4061    0.0000 </r>
       <r>   10.4050    0.0000 </r>
       <r>   11.5898    0.0000 </r>
       <r>   11.7996    0.0000 </r>
       <r>   13.2176    0.0000 </r>
       <r>   15.2650    0.0000 </r>
      </set>
      <set comment="kpoint 6">
       <r>  -19.1915    1.0000 </r>
       <r>  -11.8788    1.0000 </r>
       <r>   -8.0224    1.0000 </r>
       <r>   -6.8753    1.0000 </r>
       <r>    2.6821    0.0000 </r>
       <r>    4.5581    0.0000 </r>
       <r>    5.4900    0.0000 </r>
       <r>    5.5121    0.0000 </r>
       <r>    6.0693    0.0000 </r>
       <r>    7.8523    0.0000 </r>
       <r>    8.6820    0.0000 </r>
       <r>   11.5711    0.0000 </r>
       <r>   12.8360    0.0000 </r>
       <r>   13.6031    0.0000 </r>
       <r>   14.1036    0.0000 </r>
       <r>   15.0361    0.0000 </r>
      </set>
      <set comment="kpoint 7">
       <r>  -18.0916    1.0000 </r>
       <r>  -13.5782    1.0000 </r>
       <r>   -8.4247    1.0000 </r>
       <r>   -5.7300    1.0000 </r>
       <r>    0.9310    0.0000 </r>
       <r>    5.2631    0.0000 </r>
       <r>    6.1457    0.0000 </r>
       <r>    7.0686    0.0000 </r>
       <r>    7.6598    0.0000 </r>
       <r>    9.3843    0.0000 </r>
       <r>   10.2360    0.0000 </r>
       <r>   12.1411    0.0000 </r>
       <r>   12.6302    0.0000 </r>
       <r>   13.4803    0.0000 </r>
       <r>   14.1075    0.0000 </r>
       <r>   14.3470    0.0000 </r>
      </set>
      <set comment="kpoint 8">
       <r>  -16.8905    1.0000 </r>
       <r>  -15.0888    1.0000 </r>
       <r>   -8.6323    1.0000 </r>
       <r>   -4.7715    1.0000 </r>
       <r>   -0.3509    0.0000 </r>
       <r>    5.1665    0.0000 </r>
       <r>    7.9526    0.0000 </r>
       <r>    8.8828    0.0000 </r>
       <r>    9.5411    0.0000 </r>
       <r>   10.0065    0.0000 </r>
       <r>   10.8333    0.0000 </r>
       <r>   11.2555    0.0000 </r>
       <r>   11.7045    0.0000 </r>
       <r>   12.0539    0.0000 </r>
       <r>   13.0990    0.0000 </r>
       <r>   14.0724    0.0000 </r>
      </set>
      <set comment="kpoint 9">
       <r>  -21.4647    1.0000 </r>
       <r>   -9.4988    1.0000 </r>
       <r>   -6.4218    1.0000 </r>
       <r>   -5.9397    1.0000 </r>
       <r>    1.4334    0.0000 </r>
       <r>    2.3352    0.0000 </r>
       <r>    2.8571    0.0000 </r>
       <r>    4.7176    0.0000 </r>
       <r>    5.5189    0.0000 </r>
       <r>    6.3505    0.0000 </r>
       <r>    7.2500    0.0000 </r>
       <r>    8.1801    0.0000 </r>
       <r>    8.6330    0.0000 </r>
       <r>    9.7602    0.0000 </r>
       <r>   10.9402    0.0000 </r>
       <r>   13.9241    0.0000 </r>
      </set>
      <set comment="kpoint 10">
       <r>  -21.0462    1.0000 </r>
       <r>   -9.0026    1.0000 </r>
       <r>   -7.6748    1.0000 </r>
       <r>   -6.6665    1.0000 </r>
       <r>    2.0050    0.0000 </r>
       <r>    2.9098    0.0000 </r>
       <r>    3.4390    0.0000 </r>
       <r>    5.2870    0.0000 </r>
       <r>    6.0624    0.0000 </r>
       <r>    6.5089    0.0000 </r>
       <r>    6.9453    0.0000 </r>
       <r>    8.4246    0.0000 </r>
       <r>    9.1818    0.0000 </r>
       <r>   10.3296    0.0000 </r>
       <r>   11.9301    0.0000 </r>
       <r>   14.3950    0.0000 </r>
      </set>
      <set comment="kpoint 11">
       <r>  -20.4224    1.0000 </r>
       <r>   -9.2582    1.0000 </r>
       <r>   -8.2710    1.0000 </r>
       <r>   -7.4231    1.0000 </r>
       <r>    2.8611    0.0000 </r>
       <r>    3.7637    0.0000 </r>
       <r>    4.3114    0.0000 </r>
       <r>    5.3395    0.0000 </r>
       <r>    6.1543    0.0000 </r>
       <r>    6.3033    0.0000 </r>
       <r>    6.9953    0.0000 </r>
       <r>    9.9917    0.0000 </r>
       <r>   10.0787    0.0000 </r>
       <r>   11.1772    0.0000 </r>
       <r>   13.2930    0.0000 </r>
       <r>   14.9656    0.0000 </r>
      </set>
      <set comment="kpoint 12">
       <r>  -19.5992    1.0000 </r>
       <r>  -10.9777    1.0000 </r>
       <r>   -8.0839    1.0000 </r>
       <r>   -7.3254    1.0000 </r>
       <r>    3.5255    0.0000 </r>
       <r>    3.9986    0.0000 </r>
       <r>    4.9393    0.0000 </r>
       <r>    5.4692    0.0000 </r>
       <r>    6.0872    0.0000 </r>
       <r>    7.2789    0.0000 </r>
       <r>    8.1159    0.0000 </r>
       <r>   11.0315    0.0000 </r>
       <r>   11.8832    0.0000 </r>
       <r>   12.3107    0.0000 </r>
       <r>   14.5869    0.0000 </r>
       <r>   15.0756    0.0000 </r>
      </set>
      <set comment="kpoint 13">
       <r>  -18.5875    1.0000 </r>
       <r>  -12.6965    1.0000 </r>
       <r>   -8.5864    1.0000 </r>
       <r>   -6.2172    1.0000 </r>
       <r>    1.7332    0.0000 </r>
       <r>    5.3946    0.0000 </r>
       <r>    5.8661    0.0000 </r>
       <r>    6.3500    0.0000 </r>
       <r>    6.9360    0.0000 </r>
       <r>    8.6732    0.0000 </r>
       <r>    9.5303    0.0000 </r>
       <r>   12.1637    0.0000 </r>
       <r>   12.7704    0.0000 </r>
       <r>   13.6727    0.0000 </r>
       <r>   14.1341    0.0000 </r>
       <r>   14.8984    0.0000 </r>
      </set>
      <set comment="kpoint 14">
       <r>  -17.4176    1.0000 </r>
       <r>  -14.3137    1.0000 </r>
       <r>   -8.8980    1.0000 </r>
       <r>   -5.0994    1.0000 </r>
       <r>    0.1640    0.0000 </r>
       <r>    5.6742    0.0000 </r>
       <r>    7.1192    0.0000 </r>
       <r>    8.0285    0.0000 </r>
       <r>    8.6737    0.0000 </r>
       <r>   10.2800    0.0000 </r>
       <r>   11.1181    0.0000 </r>
       <r>   11.2414    0.0000 </r>
       <r>   11.9518    0.0000 </r>
       <r>   12.9776    0.0000 </r>
       <r>   13.4662    0.0000 </r>
       <r>   14.6170    0.0000 </r>
      </set>
      <set comment="kpoint 15">
       <r>  -16.4612    1.0000 </r>
       <r>  -15.4229    1.0000 </r>
       <r>   -9.0038    1.0000 </r>
       <r>   -4.5103    1.0000 </r>
       <r>   -0.5832    0.0000 </r>
       <r>    5.6233    0.0000 </r>
       <r>    8.9708    0.0000 </r>
       <r>    9.1281    0.0000 </r>
       <r>    9.7541    0.0000 </r>
       <r>   10.1019    0.0000 </r>
       <r>   10.6841    0.0000 </r>
       <r>   10.7097    0.0000 </r>
       <r>   11.8623    0.0000 </r>
       <r>   12.4907    0.0000 </r>
       <r>   13.0886    0.0000 </r>
       <r>   13.1739    0.0000 </r>
      </set>
      <set comment="kpoint 16">
       <r>  -20.5262    1.0000 </r>
       <r>   -8.7761    1.0000 </r>
       <r>   -8.3909    1.0000 </r>
       <r>   -7.6299    1.0000 </r>
       <r>    2.7193    0.0000 </r>
       <r>    3.6257    0.0000 </r>
       <r>    4.1666    0.0000 </r>
       <r>    5.6424    0.0000 </r>
       <r>    5.9957    0.0000 </r>
       <r>    6.7619    0.0000 </r>
       <r>    7.2069    0.0000 </r>
       <r>    8.8022    0.0000 </r>
       <r>    9.8466    0.0000 </r>
       <r>   11.0371    0.0000 </r>
       <r>   13.4246    0.0000 </r>
       <r>   14.8224    0.0000 </r>
      </set>
      <set comment="kpoint 17">
       <r>  -19.8044    1.0000 </r>
       <r>  -10.1714    1.0000 </r>
       <r>   -8.5360    1.0000 </r>
       <r>   -7.5538    1.0000 </r>
       <r>    3.7168    0.0000 </r>
       <r>    4.0732    0.0000 </r>
       <r>    4.6311    0.0000 </r>
       <r>    5.1846    0.0000 </r>
       <r>    6.9787    0.0000 </r>
       <r>    7.3308    0.0000 </r>
       <r>    7.8653    0.0000 </r>
       <r>    9.8661    0.0000 </r>
       <r>   10.7279    0.0000 </r>
       <r>   12.0183    0.0000 </r>
       <r>   14.7234    0.0000 </r>
       <r>   15.0999    0.0000 </r>
      </set>
      <set comment="kpoint 18">
       <r>  -18.8894    1.0000 </r>
       <r>  -11.7623    1.0000 </r>
       <r>   -9.2102    1.0000 </r>
       <r>   -6.5230    1.0000 </r>
       <r>    2.3991    0.0000 </r>
       <r>    4.9930    0.0000 </r>
       <r>    5.8980    0.0000 </r>
       <r>    6.4889    0.0000 </r>
       <r>    7.2099    0.0000 </r>
       <r>    8.2184    0.0000 </r>
       <r>    9.1078    0.0000 </r>
       <r>   11.3935    0.0000 </r>
       <r>   11.6524    0.0000 </r>
       <r>   13.2646    0.0000 </r>
       <r>   14.0329    0.0000 </r>
       <r>   15.6728    0.0000 </r>
      </set>
      <set comment="kpoint 19">
       <r>  -17.7989    1.0000 </r>
       <r>  -13.3743    1.0000 </r>
       <r>   -9.6547    1.0000 </r>
       <r>   -5.3778    1.0000 </r>
       <r>    0.7666    0.0000 </r>
       <r>    6.5270    0.0000 </r>
       <r>    7.0309    0.0000 </r>
       <r>    7.4181    0.0000 </r>
       <r>    8.0951    0.0000 </r>
       <r>    9.6462    0.0000 </r>
       <r>   10.6478    0.0000 </r>
       <r>   11.9598    0.0000 </r>
       <r>   11.9770    0.0000 </r>
       <r>   13.8949    0.0000 </r>
       <r>   14.2080    0.0000 </r>
       <r>   14.7185    0.0000 </r>
      </set>
      <set comment="kpoint 20">
       <r>  -16.6130    1.0000 </r>
       <r>  -14.8383    1.0000 </r>
       <r>   -9.8764    1.0000 </r>
       <r>   -4.3973    1.0000 </r>
       <r>   -0.4744    0.0000 </r>
       <r>    6.8976    0.0000 </r>
       <r>    8.3536    0.0000 </r>
       <r>    9.0720    0.0000 </r>
       <r>    9.9684    0.0000 </r>
       <r>   10.3416    0.0000 </r>
       <r>   10.6443    0.0000 </r>
       <r>   11.6683    0.0000 </r>
       <r>   12.1106    0.0000 </r>
       <r>   12.4383    0.0000 </r>
       <r>   12.9263    0.0000 </r>
       <r>   14.2463    0.0000 </r>
      </set>
      <set comment="kpoint 21">
       <r>  -18.9907    1.0000 </r>
       <r>  -11.1858    1.0000 </r>
       <r>   -9.7086    1.0000 </r>
       <r>   -6.6267    1.0000 </r>
       <r>    2.6738    0.0000 </r>
       <r>    4.8529    0.0000 </r>
       <r>    5.7395    0.0000 </r>
       <r>    6.3475    0.0000 </r>
       <r>    8.0586    0.0000 </r>
       <r>    8.5638    0.0000 </r>
       <r>    9.0285    0.0000 </r>
       <r>    9.8000    0.0000 </r>
       <r>   11.4452    0.0000 </r>
       <r>   13.1238    0.0000 </r>
       <r>   13.8417    0.0000 </r>
       <r>   16.5723    0.0000 </r>
      </set>
      <set comment="kpoint 22">
       <r>  -17.9945    1.0000 </r>
       <r>  -12.4691    1.0000 </r>
       <r>  -10.5285    1.0000 </r>
       <r>   -5.5324    1.0000 </r>
       <r>    1.1938    0.0000 </r>
       <r>    6.2612    0.0000 </r>
       <r>    7.0878    0.0000 </r>
       <r>    7.7966    0.0000 </r>
       <r>    8.8294    0.0000 </r>
       <r>    9.2827    0.0000 </r>
       <r>   10.3616    0.0000 </r>
       <r>   10.9385    0.0000 </r>
       <r>   11.5288    0.0000 </r>
       <r>   14.0796    0.0000 </r>
       <r>   14.4617    0.0000 </r>
       <r>   15.3622    0.0000 </r>
      </set>
      <set comment="kpoint 23">
       <r>  -16.8496    1.0000 </r>
       <r>  -13.8947    1.0000 </r>
       <r>  -10.9556    1.0000 </r>
       <r>   -4.3949    1.0000 </r>
       <r>   -0.1990    0.0000 </r>
       <r>    7.9166    0.0000 </r>
       <r>    8.4788    0.0000 </r>
       <r>    8.6904    0.0000 </r>
       <r>    9.5385    0.0000 </r>
       <r>   10.2104    0.0000 </r>
       <r>   11.3479    0.0000 </r>
       <r>   11.8884    0.0000 </r>
       <r>   12.0367    0.0000 </r>
       <r>   13.5872    0.0000 </r>
       <r>   13.7270    0.0000 </r>
       <r>   14.5394    0.0000 </r>
      </set>
      <set comment="kpoint 24">
       <r>  -15.9209    1.0000 </r>
       <r>  -14.9328    1.0000 </r>
       <r>  -11.0888    1.0000 </r>
       <r>   -3.7454    1.0000 </r>
       <r>   -0.9386    0.0000 </r>
       <r>    8.6107    0.0000 </r>
       <r>    9.0999    0.0000 </r>
       <r>    9.6756    0.0000 </r>
       <r>    9.8997    0.0000 </r>
       <r>   10.9690    0.0000 </r>
       <r>   11.5134    0.0000 </r>
       <r>   11.5581    0.0000 </r>
       <r>   11.8816    0.0000 </r>
       <r>   13.3558    0.0000 </r>
       <r>   13.5587    0.0000 </r>
       <r>   13.8839    0.0000 </r>
      </set>
      <set comment="kpoint 25">
       <r>  -16.9375    1.0000 </r>
       <r>  -13.2520    1.0000 </r>
       <r>  -11.6522    1.0000 </r>
       <r>   -4.4074    1.0000 </r>
       <r>   -0.0547    0.0000 </r>
       <r>    7.7828    0.0000 </r>
       <r>    8.2411    0.0000 </r>
       <r>    9.3836    0.0000 </r>
       <r>    9.9872    0.0000 </r>
       <r>   10.4716    0.0000 </r>
       <r>   10.6069    0.0000 </r>
       <r>   11.8040    0.0000 </r>
       <r>   11.9094    0.0000 </r>
       <r>   14.8329    0.0000 </r>
       <r>   14.9749    0.0000 </r>
       <r>   15.1380    0.0000 </r>
      </set>
      <set comment="kpoint 26">
       <r>  -15.8000    1.0000 </r>
       <r>  -14.2982    1.0000 </r>
       <r>  -12.1933    1.0000 </r>
       <r>   -3.3261    1.0000 </r>
       <r>   -1.1931    0.0000 </r>
       <r>    8.5769    0.0000 </r>
       <r>    9.4795    0.0000 </r>
       <r>   10.3646    0.0000 </r>
       <r>   11.0039    0.0000 </r>
       <r>   11.1073    0.0000 </r>
       <r>   11.2789    0.0000 </r>
       <r>   12.9505    0.0000 </r>
       <r>   13.1438    0.0000 </r>
       <r>   13.5063    0.0000 </r>
       <r>   13.5761    0.0000 </r>
       <r>   14.2659    0.0000 </r>
      </set>
      <set comment="kpoint 27">
       <r>  -14.8456    1.0000 </r>
       <r>  -14.8455    1.0000 </r>
       <r>  -12.8074    1.0000 </r>
       <r>   -2.2392    1.0000 </r>
       <r>   -2.2392    0.0000 </r>
       <r>    8.3809    0.0000 </r>
       <r>   10.6746    0.0000 </r>
       <r>   10.6747    0.0000 </r>
       <r>   11.2663    0.0000 </r>
       <r>   12.6970    0.0000 </r>
       <r>   12.6982    0.0000 </r>
       <r>   12.9743    0.0000 </r>
       <r>   12.9798    0.0000 </r>
       <r>   13.1979    0.0000 </r>
       <r>   13.5508    0.0000 </r>
       <r>   13.9604    0.0000 </r>
      </set>
     </set>
    </set>
   </array>
  </eigenvalues>
  <separator name="orbital magnetization" >
   <v name="MAGDIPOLOUT">      0.00000000      0.00000000      0.00000000</v>
  </separator>
  <dos>
   <i name="efermi">     -2.23928810 </i>
   <total>
    <array>
     <dimension dim="1">gridpoints</dimension>
     <dimension dim="2">spin</dimension>
     <field>energy</field>
     <field>total</field>
     <field>integrated</field>
     <set>
      <set comment="spin 1">
       <r>   -15.0000     0.2469     2.0784 </r>
       <r>   -14.9933     0.2480     2.0801 </r>
       <r>   -14.9867     0.2492     2.0817 </r>
       <r>   -14.9800     0.2503     2.0834 </r>
       <r>   -14.9733     0.2514     2.0851 </r>
       <r>   -14.9667     0.2526     2.0867 </r>
       <r>   -14.9600     0.2537     2.0884 </r>
       <r>   -14.9533     0.2549     2.0901 </r>
       <r>   -14.9466     0.2560     2.0918 </r>
       <r>   -14.9400     0.2571     2.0935 </r>
       <r>   -14.9333     0.2583     2.0953 </r>
       <r>   -14.9266     0.3045     2.0971 </r>
       <r>   -14.9200     0.3547     2.0993 </r>
       <r>   -14.9133     0.4049     2.1018 </r>
       <r>   -14.9066     0.4551     2.1047 </r>
       <r>   -14.9000     0.5053     2.1079 </r>
       <r>   -14.8933     0.5555     2.1115 </r>
       <r>   -14.8866     0.6057     2.1153 </r>
       <r>   -14.8800     0.6559     2.1195 </r>
       <r>   -14.8733     0.7061     2.1241 </r>
       <r>   -14.8666     0.7563     2.1289 </r>
       <r>   -14.8600     0.8065     2.1342 </r>
       <r>   -14.8533     0.8567     2.1397 </r>
       <r>   -14.8466     0.9070     2.1456 </r>
       <r>   -14.8399     0.9598     2.1518 </r>
       <r>   -14.8333     0.3199     2.1550 </r>
       <r>   -14.8266     0.3236     2.1572 </r>
       <r>   -14.8199     0.3272     2.1593 </r>
       <r>   -14.8133     0.3308     2.1615 </r>
       <r>   -14.8066     0.3344     2.1637 </r>
       <r>   -14.7999     0.3380     2.1660 </r>
       <r>   -14.7933     0.3416     2.1682 </r>
       <r>   -14.7866     0.3452     2.1705 </r>
       <r>   -14.7799     0.3488     2.1728 </r>
       <r>   -14.7733     0.3524     2.1752 </r>
       <r>   -14.7666     0.3560     2.1775 </r>
       <r>   -14.7599     0.3597     2.1799 </r>
       <r>   -14.7533     0.3633     2.1823 </r>
       <r>   -14.7466     0.3669     2.1848 </r>
       <r>   -14.7399     0.3705     2.1872 </r>
       <r>   -14.7332     0.3741     2.1897 </r>
       <r>   -14.7266     0.3777     2.1922 </r>
       <r>   -14.7199     0.3813     2.1948 </r>
       <r>   -14.7132     0.3849     2.1973 </r>
       <r>   -14.7066     0.3885     2.1999 </r>
       <r>   -14.6999     0.3921     2.2025 </r>
       <r>   -14.6932     0.3958     2.2051 </r>
       <r>   -14.6866     0.3994     2.2078 </r>
       <r>   -14.6799     0.4030     2.2104 </r>
       <r>   -14.6732     0.4066     2.2131 </r>
       <r>   -14.6666     0.4102     2.2159 </r>
       <r>   -14.6599     0.4138     2.2186 </r>
       <r>   -14.6532     0.4174     2.2214 </r>
       <r>   -14.6465     0.4210     2.2242 </r>
       <r>   -14.6399     0.4246     2.2270 </r>
       <r>   -14.6332     0.4282     2.2298 </r>
       <r>   -14.6265     0.4319     2.2327 </r>
       <r>   -14.6199     0.4355     2.2356 </r>
       <r>   -14.6132     0.4391     2.2385 </r>
       <r>   -14.6065     0.4427     2.2415 </r>
       <r>   -14.5999     0.4463     2.2444 </r>
       <r>   -14.5932     0.4499     2.2474 </r>
       <r>   -14.5865     0.4535     2.2504 </r>
       <r>   -14.5799     0.4571     2.2535 </r>
       <r>   -14.5732     0.4607     2.2565 </r>
       <r>   -14.5665     0.4644     2.2596 </r>
       <r>   -14.5599     0.4680     2.2627 </r>
       <r>   -14.5532     0.4716     2.2659 </r>
       <r>   -14.5465     0.4752     2.2690 </r>
       <r>   -14.5398     0.4788     2.2722 </r>
       <r>   -14.5332     0.4824     2.2754 </r>
       <r>   -14.5265     0.4860     2.2786 </r>
       <r>   -14.5198     0.4896     2.2819 </r>
       <r>   -14.5132     0.4932     2.2852 </r>
       <r>   -14.5065     0.4968     2.2885 </r>
       <r>   -14.4998     0.5005     2.2918 </r>
       <r>   -14.4932     0.5041     2.2951 </r>
       <r>   -14.4865     0.5077     2.2985 </r>
       <r>   -14.4798     0.5113     2.3019 </r>
       <r>   -14.4732     0.5149     2.3053 </r>
       <r>   -14.4665     0.5185     2.3088 </r>
       <r>   -14.4598     0.5221     2.3122 </r>
       <r>   -14.4532     0.5257     2.3157 </r>
       <r>   -14.4465     0.5293     2.3193 </r>
       <r>   -14.4398     0.5329     2.3228 </r>
       <r>   -14.4331     0.5366     2.3264 </r>
       <r>   -14.4265     0.5402     2.3300 </r>
       <r>   -14.4198     0.5438     2.3336 </r>
       <r>   -14.4131     0.5474     2.3372 </r>
       <r>   -14.4065     0.5510     2.3409 </r>
       <r>   -14.3998     0.5546     2.3446 </r>
       <r>   -14.3931     0.5582     2.3483 </r>
       <r>   -14.3865     0.5618     2.3520 </r>
       <r>   -14.3798     0.5654     2.3558 </r>
       <r>   -14.3731     0.5690     2.3595 </r>
       <r>   -14.3665     0.5727     2.3633 </r>
       <r>   -14.3598     0.5763     2.3672 </r>
       <r>   -14.3531     0.5799     2.3710 </r>
       <r>   -14.3464     0.5835     2.3749 </r>
       <r>   -14.3398     0.5871     2.3788 </r>
       <r>   -14.3331     0.5907     2.3827 </r>
       <r>   -14.3264     0.5943     2.3867 </r>
       <r>   -14.3198     0.5979     2.3907 </r>
       <r>   -14.3131     0.6016     2.3947 </r>
       <r>   -14.3064     0.6056     2.3987 </r>
       <r>   -14.2998     0.6097     2.4027 </r>
       <r>   -14.2931     0.3821     2.4057 </r>
       <r>   -14.2864     0.3815     2.4082 </r>
       <r>   -14.2798     0.3809     2.4107 </r>
       <r>   -14.2731     0.3802     2.4133 </r>
       <r>   -14.2664     0.3796     2.4158 </r>
       <r>   -14.2598     0.3789     2.4183 </r>
       <r>   -14.2531     0.3783     2.4209 </r>
       <r>   -14.2464     0.3777     2.4234 </r>
       <r>   -14.2397     0.3770     2.4259 </r>
       <r>   -14.2331     0.3764     2.4284 </r>
       <r>   -14.2264     0.3757     2.4309 </r>
       <r>   -14.2197     0.3751     2.4334 </r>
       <r>   -14.2131     0.3745     2.4359 </r>
       <r>   -14.2064     0.3738     2.4384 </r>
       <r>   -14.1997     0.3732     2.4409 </r>
       <r>   -14.1931     0.3725     2.4434 </r>
       <r>   -14.1864     0.3719     2.4459 </r>
       <r>   -14.1797     0.3713     2.4484 </r>
       <r>   -14.1731     0.3706     2.4508 </r>
       <r>   -14.1664     0.3700     2.4533 </r>
       <r>   -14.1597     0.3693     2.4558 </r>
       <r>   -14.1531     0.3687     2.4582 </r>
       <r>   -14.1464     0.3680     2.4607 </r>
       <r>   -14.1397     0.3674     2.4631 </r>
       <r>   -14.1330     0.3668     2.4656 </r>
       <r>   -14.1264     0.3661     2.4680 </r>
       <r>   -14.1197     0.3655     2.4705 </r>
       <r>   -14.1130     0.3648     2.4729 </r>
       <r>   -14.1064     0.3642     2.4753 </r>
       <r>   -14.0997     0.3636     2.4778 </r>
       <r>   -14.0930     0.3629     2.4802 </r>
       <r>   -14.0864     0.3623     2.4826 </r>
       <r>   -14.0797     0.3616     2.4850 </r>
       <r>   -14.0730     0.3610     2.4874 </r>
       <r>   -14.0664     0.3604     2.4898 </r>
       <r>   -14.0597     0.3597     2.4922 </r>
       <r>   -14.0530     0.3591     2.4946 </r>
       <r>   -14.0463     0.3584     2.4970 </r>
       <r>   -14.0397     0.3578     2.4994 </r>
       <r>   -14.0330     0.3572     2.5018 </r>
       <r>   -14.0263     0.3565     2.5042 </r>
       <r>   -14.0197     0.3559     2.5065 </r>
       <r>   -14.0130     0.3552     2.5089 </r>
       <r>   -14.0063     0.3546     2.5113 </r>
       <r>   -13.9997     0.3540     2.5136 </r>
       <r>   -13.9930     0.3533     2.5160 </r>
       <r>   -13.9863     0.3527     2.5184 </r>
       <r>   -13.9797     0.3520     2.5207 </r>
       <r>   -13.9730     0.3514     2.5231 </r>
       <r>   -13.9663     0.3507     2.5254 </r>
       <r>   -13.9597     0.3501     2.5277 </r>
       <r>   -13.9530     0.3495     2.5301 </r>
       <r>   -13.9463     0.3488     2.5324 </r>
       <r>   -13.9396     0.3482     2.5347 </r>
       <r>   -13.9330     0.3475     2.5370 </r>
       <r>   -13.9263     0.3469     2.5394 </r>
       <r>   -13.9196     0.3463     2.5417 </r>
       <r>   -13.9130     0.3456     2.5440 </r>
       <r>   -13.9063     0.3450     2.5463 </r>
       <r>   -13.8996     0.3443     2.5486 </r>
       <r>   -13.8930     0.3437     2.5509 </r>
       <r>   -13.8863     0.3430     2.5532 </r>
       <r>   -13.8796     0.3423     2.5554 </r>
       <r>   -13.8730     0.3417     2.5577 </r>
       <r>   -13.8663     0.3410     2.5600 </r>
       <r>   -13.8596     0.3403     2.5623 </r>
       <r>   -13.8530     0.3397     2.5645 </r>
       <r>   -13.8463     0.3390     2.5668 </r>
       <r>   -13.8396     0.3383     2.5691 </r>
       <r>   -13.8329     0.3376     2.5713 </r>
       <r>   -13.8263     0.3370     2.5736 </r>
       <r>   -13.8196     0.3363     2.5758 </r>
       <r>   -13.8129     0.3356     2.5781 </r>
       <r>   -13.8063     0.3350     2.5803 </r>
       <r>   -13.7996     0.3343     2.5825 </r>
       <r>   -13.7929     0.3336     2.5847 </r>
       <r>   -13.7863     0.3329     2.5870 </r>
       <r>   -13.7796     0.3323     2.5892 </r>
       <r>   -13.7729     0.3316     2.5914 </r>
       <r>   -13.7663     0.3309     2.5936 </r>
       <r>   -13.7596     0.3302     2.5958 </r>
       <r>   -13.7529     0.3296     2.5980 </r>
       <r>   -13.7462     0.3289     2.6002 </r>
       <r>   -13.7396     0.3282     2.6024 </r>
       <r>   -13.7329     0.3276     2.6046 </r>
       <r>   -13.7262     0.3269     2.6068 </r>
       <r>   -13.7196     0.3262     2.6089 </r>
       <r>   -13.7129     0.3255     2.6111 </r>
       <r>   -13.7062     0.3249     2.6133 </r>
       <r>   -13.6996     0.3242     2.6155 </r>
       <r>   -13.6929     0.3235     2.6176 </r>
       <r>   -13.6862     0.3228     2.6198 </r>
       <r>   -13.6796     0.3222     2.6219 </r>
       <r>   -13.6729     0.3215     2.6241 </r>
       <r>   -13.6662     0.3208     2.6262 </r>
       <r>   -13.6596     0.3202     2.6283 </r>
       <r>   -13.6529     0.3195     2.6305 </r>
       <r>   -13.6462     0.3188     2.6326 </r>
       <r>   -13.6395     0.3181     2.6347 </r>
       <r>   -13.6329     0.3175     2.6368 </r>
       <r>   -13.6262     0.3168     2.6390 </r>
       <r>   -13.6195     0.3161     2.6411 </r>
       <r>   -13.6129     0.3154     2.6432 </r>
       <r>   -13.6062     0.3148     2.6453 </r>
       <r>   -13.5995     0.3141     2.6474 </r>
       <r>   -13.5929     0.3134     2.6495 </r>
       <r>   -13.5862     0.3128     2.6516 </r>
       <r>   -13.5795     0.3121     2.6536 </r>
       <r>   -13.5729     0.3114     2.6557 </r>
       <r>   -13.5662     0.3108     2.6578 </r>
       <r>   -13.5595     0.3101     2.6599 </r>
       <r>   -13.5529     0.3095     2.6619 </r>
       <r>   -13.5462     0.3088     2.6640 </r>
       <r>   -13.5395     0.3082     2.6661 </r>
       <r>   -13.5328     0.3075     2.6681 </r>
       <r>   -13.5262     0.3068     2.6702 </r>
       <r>   -13.5195     0.3062     2.6722 </r>
       <r>   -13.5128     0.3055     2.6742 </r>
       <r>   -13.5062     0.3049     2.6763 </r>
       <r>   -13.4995     0.3042     2.6783 </r>
       <r>   -13.4928     0.3036     2.6803 </r>
       <r>   -13.4862     0.3029     2.6824 </r>
       <r>   -13.4795     0.3023     2.6844 </r>
       <r>   -13.4728     0.3016     2.6864 </r>
       <r>   -13.4662     0.3010     2.6884 </r>
       <r>   -13.4595     0.3003     2.6904 </r>
       <r>   -13.4528     0.2996     2.6924 </r>
       <r>   -13.4461     0.2990     2.6944 </r>
       <r>   -13.4395     0.2983     2.6964 </r>
       <r>   -13.4328     0.2977     2.6984 </r>
       <r>   -13.4261     0.2970     2.7004 </r>
       <r>   -13.4195     0.2964     2.7023 </r>
       <r>   -13.4128     0.2957     2.7043 </r>
       <r>   -13.4061     0.2951     2.7063 </r>
       <r>   -13.3995     0.2944     2.7082 </r>
       <r>   -13.3928     0.2938     2.7102 </r>
       <r>   -13.3861     0.2931     2.7122 </r>
       <r>   -13.3795     0.2925     2.7141 </r>
       <r>   -13.3728     0.2918     2.7161 </r>
       <r>   -13.3661     0.2911     2.7180 </r>
       <r>   -13.3595     0.2904     2.7199 </r>
       <r>   -13.3528     0.2897     2.7219 </r>
       <r>   -13.3461     0.2890     2.7238 </r>
       <r>   -13.3394     0.2883     2.7257 </r>
       <r>   -13.3328     0.2876     2.7277 </r>
       <r>   -13.3261     0.2869     2.7296 </r>
       <r>   -13.3194     0.2862     2.7315 </r>
       <r>   -13.3128     0.2856     2.7334 </r>
       <r>   -13.3061     0.2849     2.7353 </r>
       <r>   -13.2994     0.2842     2.7372 </r>
       <r>   -13.2928     0.2835     2.7391 </r>
       <r>   -13.2861     0.2828     2.7410 </r>
       <r>   -13.2794     0.2821     2.7429 </r>
       <r>   -13.2728     0.2814     2.7447 </r>
       <r>   -13.2661     0.2807     2.7466 </r>
       <r>   -13.2594     0.2800     2.7485 </r>
       <r>   -13.2528     0.2793     2.7503 </r>
       <r>   -13.2461     0.2791     2.7522 </r>
       <r>   -13.2394     0.2790     2.7541 </r>
       <r>   -13.2327     0.2788     2.7559 </r>
       <r>   -13.2261     0.2787     2.7578 </r>
       <r>   -13.2194     0.2786     2.7596 </r>
       <r>   -13.2127     0.2784     2.7615 </r>
       <r>   -13.2061     0.2783     2.7634 </r>
       <r>   -13.1994     0.2781     2.7652 </r>
       <r>   -13.1927     0.2780     2.7671 </r>
       <r>   -13.1861     0.2778     2.7689 </r>
       <r>   -13.1794     0.2777     2.7708 </r>
       <r>   -13.1727     0.2776     2.7726 </r>
       <r>   -13.1661     0.2774     2.7745 </r>
       <r>   -13.1594     0.2773     2.7763 </r>
       <r>   -13.1527     0.2771     2.7782 </r>
       <r>   -13.1460     0.2770     2.7800 </r>
       <r>   -13.1394     0.2768     2.7819 </r>
       <r>   -13.1327     0.2767     2.7837 </r>
       <r>   -13.1260     0.2766     2.7856 </r>
       <r>   -13.1194     0.2764     2.7874 </r>
       <r>   -13.1127     0.2763     2.7892 </r>
       <r>   -13.1060     0.2761     2.7911 </r>
       <r>   -13.0994     0.2760     2.7929 </r>
       <r>   -13.0927     0.2758     2.7948 </r>
       <r>   -13.0860     0.2757     2.7966 </r>
       <r>   -13.0794     0.2756     2.7984 </r>
       <r>   -13.0727     0.2754     2.8003 </r>
       <r>   -13.0660     0.2753     2.8021 </r>
       <r>   -13.0594     0.2751     2.8040 </r>
       <r>   -13.0527     0.2750     2.8058 </r>
       <r>   -13.0460     0.2748     2.8076 </r>
       <r>   -13.0393     0.2747     2.8095 </r>
       <r>   -13.0327     0.2746     2.8113 </r>
       <r>   -13.0260     0.2744     2.8131 </r>
       <r>   -13.0193     0.2743     2.8149 </r>
       <r>   -13.0127     0.2741     2.8168 </r>
       <r>   -13.0060     0.2740     2.8186 </r>
       <r>   -12.9993     0.2738     2.8204 </r>
       <r>   -12.9927     0.2737     2.8223 </r>
       <r>   -12.9860     0.2736     2.8241 </r>
       <r>   -12.9793     0.2734     2.8259 </r>
       <r>   -12.9727     0.2733     2.8277 </r>
       <r>   -12.9660     0.2731     2.8295 </r>
       <r>   -12.9593     0.2730     2.8314 </r>
       <r>   -12.9527     0.2728     2.8332 </r>
       <r>   -12.9460     0.2727     2.8350 </r>
       <r>   -12.9393     0.2726     2.8368 </r>
       <r>   -12.9326     0.2724     2.8386 </r>
       <r>   -12.9260     0.2723     2.8405 </r>
       <r>   -12.9193     0.2721     2.8423 </r>
       <r>   -12.9126     0.2720     2.8441 </r>
       <r>   -12.9060     0.2718     2.8459 </r>
       <r>   -12.8993     0.2717     2.8477 </r>
       <r>   -12.8926     0.2716     2.8495 </r>
       <r>   -12.8860     0.2714     2.8513 </r>
       <r>   -12.8793     0.2713     2.8531 </r>
       <r>   -12.8726     0.2711     2.8550 </r>
       <r>   -12.8660     0.2710     2.8568 </r>
       <r>   -12.8593     0.2708     2.8586 </r>
       <r>   -12.8526     0.2707     2.8604 </r>
       <r>   -12.8459     0.2706     2.8622 </r>
       <r>   -12.8393     0.2704     2.8640 </r>
       <r>   -12.8326     0.2703     2.8658 </r>
       <r>   -12.8259     0.2701     2.8676 </r>
       <r>   -12.8193     0.2700     2.8694 </r>
       <r>   -12.8126     0.2698     2.8712 </r>
       <r>   -12.8059     0.2701     2.8730 </r>
       <r>   -12.7993     0.2719     2.8748 </r>
       <r>   -12.7926     0.2736     2.8766 </r>
       <r>   -12.7859     0.2753     2.8784 </r>
       <r>   -12.7793     0.2771     2.8803 </r>
       <r>   -12.7726     0.2788     2.8821 </r>
       <r>   -12.7659     0.2806     2.8840 </r>
       <r>   -12.7593     0.2823     2.8859 </r>
       <r>   -12.7526     0.2841     2.8878 </r>
       <r>   -12.7459     0.2858     2.8897 </r>
       <r>   -12.7392     0.2875     2.8916 </r>
       <r>   -12.7326     0.2893     2.8935 </r>
       <r>   -12.7259     0.2910     2.8954 </r>
       <r>   -12.7192     0.2928     2.8974 </r>
       <r>   -12.7126     0.2945     2.8993 </r>
       <r>   -12.7059     0.2963     2.9013 </r>
       <r>   -12.6992     0.2980     2.9033 </r>
       <r>   -12.6926     0.2997     2.9053 </r>
       <r>   -12.6859     0.3015     2.9073 </r>
       <r>   -12.6792     0.3032     2.9093 </r>
       <r>   -12.6726     0.3049     2.9113 </r>
       <r>   -12.6659     0.3067     2.9134 </r>
       <r>   -12.6592     0.3084     2.9154 </r>
       <r>   -12.6526     0.3101     2.9175 </r>
       <r>   -12.6459     0.3119     2.9196 </r>
       <r>   -12.6392     0.3136     2.9217 </r>
       <r>   -12.6325     0.3153     2.9237 </r>
       <r>   -12.6259     0.3171     2.9259 </r>
       <r>   -12.6192     0.3188     2.9280 </r>
       <r>   -12.6125     0.3205     2.9301 </r>
       <r>   -12.6059     0.3222     2.9323 </r>
       <r>   -12.5992     0.3240     2.9344 </r>
       <r>   -12.5925     0.3257     2.9366 </r>
       <r>   -12.5859     0.3274     2.9388 </r>
       <r>   -12.5792     0.3292     2.9409 </r>
       <r>   -12.5725     0.3309     2.9431 </r>
       <r>   -12.5659     0.3326     2.9454 </r>
       <r>   -12.5592     0.3344     2.9476 </r>
       <r>   -12.5525     0.3361     2.9498 </r>
       <r>   -12.5458     0.3378     2.9521 </r>
       <r>   -12.5392     0.3396     2.9543 </r>
       <r>   -12.5325     0.3413     2.9566 </r>
       <r>   -12.5258     0.3430     2.9589 </r>
       <r>   -12.5192     0.3447     2.9612 </r>
       <r>   -12.5125     0.3465     2.9635 </r>
       <r>   -12.5058     0.3482     2.9658 </r>
       <r>   -12.4992     0.3499     2.9681 </r>
       <r>   -12.4925     0.3517     2.9705 </r>
       <r>   -12.4858     0.3534     2.9728 </r>
       <r>   -12.4792     0.3551     2.9752 </r>
       <r>   -12.4725     0.3569     2.9775 </r>
       <r>   -12.4658     0.3321     2.9798 </r>
       <r>   -12.4592     0.3339     2.9821 </r>
       <r>   -12.4525     0.3356     2.9843 </r>
       <r>   -12.4458     0.3374     2.9865 </r>
       <r>   -12.4391     0.3392     2.9888 </r>
       <r>   -12.4325     0.3410     2.9911 </r>
       <r>   -12.4258     0.3428     2.9933 </r>
       <r>   -12.4191     0.3446     2.9956 </r>
       <r>   -12.4125     0.3464     2.9979 </r>
       <r>   -12.4058     0.3482     3.0003 </r>
       <r>   -12.3991     0.3500     3.0026 </r>
       <r>   -12.3925     0.3518     3.0049 </r>
       <r>   -12.3858     0.3536     3.0073 </r>
       <r>   -12.3791     0.3554     3.0096 </r>
       <r>   -12.3725     0.3572     3.0120 </r>
       <r>   -12.3658     0.3590     3.0144 </r>
       <r>   -12.3591     0.3608     3.0168 </r>
       <r>   -12.3525     0.3626     3.0192 </r>
       <r>   -12.3458     0.3644     3.0216 </r>
       <r>   -12.3391     0.3662     3.0241 </r>
       <r>   -12.3324     0.3680     3.0265 </r>
       <r>   -12.3258     0.3698     3.0290 </r>
       <r>   -12.3191     0.3716     3.0315 </r>
       <r>   -12.3124     0.3733     3.0339 </r>
       <r>   -12.3058     0.3751     3.0364 </r>
       <r>   -12.2991     0.3769     3.0389 </r>
       <r>   -12.2924     0.3787     3.0415 </r>
       <r>   -12.2858     0.3805     3.0440 </r>
       <r>   -12.2791     0.3823     3.0465 </r>
       <r>   -12.2724     0.3841     3.0491 </r>
       <r>   -12.2658     0.3859     3.0517 </r>
       <r>   -12.2591     0.3877     3.0542 </r>
       <r>   -12.2524     0.3895     3.0568 </r>
       <r>   -12.2457     0.3913     3.0594 </r>
       <r>   -12.2391     0.3931     3.0620 </r>
       <r>   -12.2324     0.3949     3.0647 </r>
       <r>   -12.2257     0.3967     3.0673 </r>
       <r>   -12.2191     0.3985     3.0700 </r>
       <r>   -12.2124     0.4003     3.0726 </r>
       <r>   -12.2057     0.4021     3.0753 </r>
       <r>   -12.1991     0.4039     3.0780 </r>
       <r>   -12.1924     0.3785     3.0807 </r>
       <r>   -12.1857     0.3785     3.0832 </r>
       <r>   -12.1791     0.3785     3.0857 </r>
       <r>   -12.1724     0.3785     3.0882 </r>
       <r>   -12.1657     0.3785     3.0908 </r>
       <r>   -12.1591     0.3785     3.0933 </r>
       <r>   -12.1524     0.3784     3.0958 </r>
       <r>   -12.1457     0.3784     3.0983 </r>
       <r>   -12.1390     0.3784     3.1009 </r>
       <r>   -12.1324     0.3784     3.1034 </r>
       <r>   -12.1257     0.3784     3.1059 </r>
       <r>   -12.1190     0.3784     3.1084 </r>
       <r>   -12.1124     0.3784     3.1110 </r>
       <r>   -12.1057     0.3783     3.1135 </r>
       <r>   -12.0990     0.3783     3.1160 </r>
       <r>   -12.0924     0.3783     3.1185 </r>
       <r>   -12.0857     0.3783     3.1210 </r>
       <r>   -12.0790     0.3783     3.1236 </r>
       <r>   -12.0724     0.3783     3.1261 </r>
       <r>   -12.0657     0.3783     3.1286 </r>
       <r>   -12.0590     0.3782     3.1311 </r>
       <r>   -12.0524     0.3782     3.1337 </r>
       <r>   -12.0457     0.3782     3.1362 </r>
       <r>   -12.0390     0.3782     3.1387 </r>
       <r>   -12.0323     0.3782     3.1412 </r>
       <r>   -12.0257     0.3782     3.1437 </r>
       <r>   -12.0190     0.3781     3.1463 </r>
       <r>   -12.0123     0.3781     3.1488 </r>
       <r>   -12.0057     0.3781     3.1513 </r>
       <r>   -11.9990     0.3781     3.1538 </r>
       <r>   -11.9923     0.3781     3.1564 </r>
       <r>   -11.9857     0.3781     3.1589 </r>
       <r>   -11.9790     0.3781     3.1614 </r>
       <r>   -11.9723     0.3780     3.1639 </r>
       <r>   -11.9657     0.3780     3.1664 </r>
       <r>   -11.9590     0.3780     3.1690 </r>
       <r>   -11.9523     0.3780     3.1715 </r>
       <r>   -11.9456     0.3780     3.1740 </r>
       <r>   -11.9390     0.3780     3.1765 </r>
       <r>   -11.9323     0.3780     3.1790 </r>
       <r>   -11.9256     0.3779     3.1816 </r>
       <r>   -11.9190     0.3779     3.1841 </r>
       <r>   -11.9123     0.3779     3.1866 </r>
       <r>   -11.9056     0.3779     3.1891 </r>
       <r>   -11.8990     0.3779     3.1916 </r>
       <r>   -11.8923     0.3779     3.1942 </r>
       <r>   -11.8856     0.3779     3.1967 </r>
       <r>   -11.8790     0.3778     3.1992 </r>
       <r>   -11.8723     0.3778     3.2017 </r>
       <r>   -11.8656     0.3778     3.2042 </r>
       <r>   -11.8590     0.3778     3.2068 </r>
       <r>   -11.8523     0.3778     3.2093 </r>
       <r>   -11.8456     0.3777     3.2118 </r>
       <r>   -11.8389     0.3777     3.2143 </r>
       <r>   -11.8323     0.3777     3.2168 </r>
       <r>   -11.8256     0.3777     3.2194 </r>
       <r>   -11.8189     0.3776     3.2219 </r>
       <r>   -11.8123     0.3776     3.2244 </r>
       <r>   -11.8056     0.3776     3.2269 </r>
       <r>   -11.7989     0.3776     3.2294 </r>
       <r>   -11.7923     0.3776     3.2320 </r>
       <r>   -11.7856     0.3775     3.2345 </r>
       <r>   -11.7789     0.3775     3.2370 </r>
       <r>   -11.7723     0.3775     3.2395 </r>
       <r>   -11.7656     0.3775     3.2420 </r>
       <r>   -11.7589     0.3773     3.2445 </r>
       <r>   -11.7523     0.3770     3.2471 </r>
       <r>   -11.7456     0.3767     3.2496 </r>
       <r>   -11.7389     0.3764     3.2521 </r>
       <r>   -11.7322     0.3761     3.2546 </r>
       <r>   -11.7256     0.3758     3.2571 </r>
       <r>   -11.7189     0.3755     3.2596 </r>
       <r>   -11.7122     0.3752     3.2621 </r>
       <r>   -11.7056     0.3749     3.2646 </r>
       <r>   -11.6989     0.3747     3.2671 </r>
       <r>   -11.6922     0.3744     3.2696 </r>
       <r>   -11.6856     0.3741     3.2721 </r>
       <r>   -11.6789     0.3738     3.2746 </r>
       <r>   -11.6722     0.3735     3.2771 </r>
       <r>   -11.6656     0.3732     3.2796 </r>
       <r>   -11.6589     0.3729     3.2821 </r>
       <r>   -11.6522     0.3726     3.2845 </r>
       <r>   -11.6455     0.3728     3.2870 </r>
       <r>   -11.6389     0.3730     3.2895 </r>
       <r>   -11.6322     0.3732     3.2920 </r>
       <r>   -11.6255     0.3735     3.2945 </r>
       <r>   -11.6189     0.3737     3.2970 </r>
       <r>   -11.6122     0.3739     3.2995 </r>
       <r>   -11.6055     0.3741     3.3020 </r>
       <r>   -11.5989     0.3744     3.3045 </r>
       <r>   -11.5922     0.3746     3.3070 </r>
       <r>   -11.5855     0.3748     3.3095 </r>
       <r>   -11.5789     0.3750     3.3120 </r>
       <r>   -11.5722     0.3752     3.3145 </r>
       <r>   -11.5655     0.3755     3.3170 </r>
       <r>   -11.5589     0.3757     3.3195 </r>
       <r>   -11.5522     0.3759     3.3220 </r>
       <r>   -11.5455     0.3761     3.3245 </r>
       <r>   -11.5388     0.3764     3.3270 </r>
       <r>   -11.5322     0.3766     3.3295 </r>
       <r>   -11.5255     0.3768     3.3320 </r>
       <r>   -11.5188     0.3770     3.3345 </r>
       <r>   -11.5122     0.3773     3.3371 </r>
       <r>   -11.5055     0.3775     3.3396 </r>
       <r>   -11.4988     0.3777     3.3421 </r>
       <r>   -11.4922     0.3779     3.3446 </r>
       <r>   -11.4855     0.3781     3.3471 </r>
       <r>   -11.4788     0.3784     3.3496 </r>
       <r>   -11.4722     0.3786     3.3522 </r>
       <r>   -11.4655     0.3788     3.3547 </r>
       <r>   -11.4588     0.3790     3.3572 </r>
       <r>   -11.4522     0.3793     3.3598 </r>
       <r>   -11.4455     0.3795     3.3623 </r>
       <r>   -11.4388     0.3797     3.3648 </r>
       <r>   -11.4321     0.3799     3.3673 </r>
       <r>   -11.4255     0.3801     3.3699 </r>
       <r>   -11.4188     0.3804     3.3724 </r>
       <r>   -11.4121     0.3806     3.3750 </r>
       <r>   -11.4055     0.3808     3.3775 </r>
       <r>   -11.3988     0.3810     3.3800 </r>
       <r>   -11.3921     0.3813     3.3826 </r>
       <r>   -11.3855     0.3815     3.3851 </r>
       <r>   -11.3788     0.3817     3.3877 </r>
       <r>   -11.3721     0.3819     3.3902 </r>
       <r>   -11.3655     0.3821     3.3928 </r>
       <r>   -11.3588     0.3824     3.3953 </r>
       <r>   -11.3521     0.3826     3.3979 </r>
       <r>   -11.3454     0.3828     3.4004 </r>
       <r>   -11.3388     0.3830     3.4030 </r>
       <r>   -11.3321     0.3833     3.4055 </r>
       <r>   -11.3254     0.3835     3.4081 </r>
       <r>   -11.3188     0.3837     3.4106 </r>
       <r>   -11.3121     0.3839     3.4132 </r>
       <r>   -11.3054     0.3841     3.4158 </r>
       <r>   -11.2988     0.3844     3.4183 </r>
       <r>   -11.2921     0.3846     3.4209 </r>
       <r>   -11.2854     0.3848     3.4234 </r>
       <r>   -11.2788     0.3850     3.4260 </r>
       <r>   -11.2721     0.3853     3.4286 </r>
       <r>   -11.2654     0.3855     3.4312 </r>
       <r>   -11.2588     0.3857     3.4337 </r>
       <r>   -11.2521     0.3859     3.4363 </r>
       <r>   -11.2454     0.3861     3.4389 </r>
       <r>   -11.2387     0.3864     3.4414 </r>
       <r>   -11.2321     0.3866     3.4440 </r>
       <r>   -11.2254     0.3868     3.4466 </r>
       <r>   -11.2187     0.3870     3.4492 </r>
       <r>   -11.2121     0.3873     3.4518 </r>
       <r>   -11.2054     0.3875     3.4543 </r>
       <r>   -11.1987     0.3877     3.4569 </r>
       <r>   -11.1921     0.3879     3.4595 </r>
       <r>   -11.1854     0.3882     3.4621 </r>
       <r>   -11.1787     0.3887     3.4647 </r>
       <r>   -11.1721     0.3892     3.4673 </r>
       <r>   -11.1654     0.3898     3.4699 </r>
       <r>   -11.1587     0.3903     3.4725 </r>
       <r>   -11.1521     0.3908     3.4751 </r>
       <r>   -11.1454     0.3913     3.4777 </r>
       <r>   -11.1387     0.3919     3.4803 </r>
       <r>   -11.1320     0.3924     3.4829 </r>
       <r>   -11.1254     0.3929     3.4855 </r>
       <r>   -11.1187     0.3935     3.4882 </r>
       <r>   -11.1120     0.3940     3.4908 </r>
       <r>   -11.1054     0.3945     3.4934 </r>
       <r>   -11.0987     0.3951     3.4961 </r>
       <r>   -11.0920     0.3956     3.4987 </r>
       <r>   -11.0854     0.3962     3.5013 </r>
       <r>   -11.0787     0.3968     3.5040 </r>
       <r>   -11.0720     0.3974     3.5066 </r>
       <r>   -11.0654     0.3981     3.5093 </r>
       <r>   -11.0587     0.3987     3.5119 </r>
       <r>   -11.0520     0.3993     3.5146 </r>
       <r>   -11.0453     0.4000     3.5173 </r>
       <r>   -11.0387     0.4006     3.5199 </r>
       <r>   -11.0320     0.4012     3.5226 </r>
       <r>   -11.0253     0.4019     3.5253 </r>
       <r>   -11.0187     0.4025     3.5280 </r>
       <r>   -11.0120     0.4031     3.5307 </r>
       <r>   -11.0053     0.4038     3.5333 </r>
       <r>   -10.9987     0.4044     3.5360 </r>
       <r>   -10.9920     0.4050     3.5387 </r>
       <r>   -10.9853     0.4057     3.5414 </r>
       <r>   -10.9787     0.4063     3.5441 </r>
       <r>   -10.9720     0.4069     3.5469 </r>
       <r>   -10.9653     0.4074     3.5496 </r>
       <r>   -10.9587     0.4080     3.5523 </r>
       <r>   -10.9520     0.4084     3.5550 </r>
       <r>   -10.9453     0.4085     3.5577 </r>
       <r>   -10.9386     0.4087     3.5605 </r>
       <r>   -10.9320     0.4088     3.5632 </r>
       <r>   -10.9253     0.4090     3.5659 </r>
       <r>   -10.9186     0.4092     3.5686 </r>
       <r>   -10.9120     0.4093     3.5714 </r>
       <r>   -10.9053     0.4095     3.5741 </r>
       <r>   -10.8986     0.4096     3.5768 </r>
       <r>   -10.8920     0.4098     3.5796 </r>
       <r>   -10.8853     0.4100     3.5823 </r>
       <r>   -10.8786     0.4101     3.5850 </r>
       <r>   -10.8720     0.4103     3.5878 </r>
       <r>   -10.8653     0.4105     3.5905 </r>
       <r>   -10.8586     0.4106     3.5932 </r>
       <r>   -10.8520     0.4108     3.5960 </r>
       <r>   -10.8453     0.4109     3.5987 </r>
       <r>   -10.8386     0.4111     3.6015 </r>
       <r>   -10.8319     0.4113     3.6042 </r>
       <r>   -10.8253     0.4114     3.6070 </r>
       <r>   -10.8186     0.4116     3.6097 </r>
       <r>   -10.8119     0.4117     3.6124 </r>
       <r>   -10.8053     0.4119     3.6152 </r>
       <r>   -10.7986     0.4121     3.6179 </r>
       <r>   -10.7919     0.4122     3.6207 </r>
       <r>   -10.7853     0.4124     3.6234 </r>
       <r>   -10.7786     0.4125     3.6262 </r>
       <r>   -10.7719     0.4127     3.6289 </r>
       <r>   -10.7653     0.4129     3.6317 </r>
[...]
       </set>
       <set comment="band 12">
        <r>  0.0720  0.0488  0.0000  0.1354  0.0000  0.0000  0.0000  0.0000  0.0000 </r>
        <r>  0.0720  0.0488  0.0000  0.1354  0.0000  0.0000  0.0000  0.0000  0.0000 </r>
       </set>
       <set comment="band 13">
        <r>  0.0000  0.0000  0.0081  0.0000  0.0000  0.0000  0.0000  0.0000  0.0000 </r>
        <r>  0.0000  0.0000  0.0081  0.0000  0.0000  0.0000  0.0000  0.0000  0.0000 </r>
       </set>
       <set comment="band 14">
        <r>  0.0000  0.0000  0.0121  0.0000  0.0000  0.0000  0.0000  0.0000  0.0000 </r>
        <r>  0.0000  0.0000  0.0121  0.0000  0.0000  0.0000  0.0000  0.0000  0.0000 </r>
       </set>
       <set comment="band 15">
        <r>  0.0030  0.0107  0.0000  0.0042  0.0000  0.0000  0.0000  0.0000  0.0000 </r>
        <r>  0.0030  0.0107  0.0000  0.0042  0.0000  0.0000  0.0000  0.0000  0.0000 </r>
       </set>
       <set comment="band 16">
        <r>  0.0167  0.0248  0.0000  0.0049  0.0000  0.0000  0.0000  0.0000  0.0000 </r>
        <r>  0.0167  0.0248  0.0000  0.0049  0.0000  0.0000  0.0000  0.0000  0.0000 </r>
       </set>
      </set>
      <set comment="kpoint 23">
       <set comment="band 1">
        <r>  0.2586  0.0578  0.0000  0.0358  0.0000  0.0000  0.0000  0.0000  0.0000 </r>
        <r>  0.2586  0.0578  0.0000  0.0358  0.0000  0.0000  0.0000  0.0000  0.0000 </r>
       </set>
       <set comment="band 2">
        <r>  0.1795  0.0280  0.0000  0.1543  0.0000  0.0000  0.0000  0.0000  0.0000 </r>
        <r>  0.1795  0.0280  0.0000  0.1543  0.0000  0.0000  0.0000  0.0000  0.0000 </r>
       </set>
       <set comment="band 3">
        <r>  0.0427  0.2195  0.0000  0.0963  0.0000  0.0000  0.0000  0.0000  0.0000 </r>
        <r>  0.0427  0.2195  0.0000  0.0963  0.0000  0.0000  0.0000  0.0000  0.0000 </r>
       </set>
       <set comment="band 4">
        <r>  0.0000  0.0000  0.2492  0.0000  0.0000  0.0000  0.0000  0.0000  0.0000 </r>
        <r>  0.0000  0.0000  0.2492  0.0000  0.0000  0.0000  0.0000  0.0000  0.0000 </r>
       </set>
       <set comment="band 5">
        <r>  0.0000  0.0000  0.2626  0.0000  0.0000  0.0000  0.0000  0.0000  0.0000 </r>
        <r>  0.0000  0.0000  0.2626  0.0000  0.0000  0.0000  0.0000  0.0000  0.0000 </r>
       </set>
       <set comment="band 6">
        <r>  0.0024  0.0100  0.0000  0.0106  0.0000  0.0000  0.0000  0.0000  0.0000 </r>
        <r>  0.0024  0.0100  0.0000  0.0106  0.0000  0.0000  0.0000  0.0000  0.0000 </r>
       </set>
       <set comment="band 7">
        <r>  0.0000  0.0000  0.0279  0.0000  0.0000  0.0000  0.0000  0.0000  0.0000 </r>
        <r>  0.0000  0.0000  0.0279  0.0000  0.0000  0.0000  0.0000  0.0000  0.0000 </r>
       </set>
       <set comment="band 8">
        <r>  0.1057  0.0751  0.0000  0.0658  0.0000  0.0000  0.0000  0.0000  0.0000 </r>
        <r>  0.1057  0.0751  0.0000  0.0658  0.0000  0.0000  0.0000  0.0000  0.0000 </r>
       </set>
       <set comment="band 9">
        <r>  0.0017  0.0031  0.0000  0.0003  0.0000  0.0000  0.0000  0.0000  0.0000 </r>
        <r>  0.0017  0.0031  0.0000  0.0003  0.0000  0.0000  0.0000  0.0000  0.0000 </r>
       </set>
       <set comment="band 10">
        <r>  0.0000  0.0000  0.0103  0.0000  0.0000  0.0000  0.0000  0.0000  0.0000 </r>
        <r>  0.0000  0.0000  0.0103  0.0000  0.0000  0.0000  0.0000  0.0000  0.0000 </r>
       </set>
       <set comment="band 11">
        <r>  0.0078  0.0190  0.0000  0.0887  0.0000  0.0000  0.0000  0.0000  0.0000 </r>
        <r>  0.0078  0.0190  0.0000  0.0887  0.0000  0.0000  0.0000  0.0000  0.0000 </r>
       </set>
       <set comment="band 12">
        <r>  0.0000  0.0000  0.0089  0.0000  0.0000  0.0000  0.0000  0.0000  0.0000 </r>
        <r>  0.0000  0.0000  0.0089  0.0000  0.0000  0.0000  0.0000  0.0000  0.0000 </r>
       </set>
       <set comment="band 13">
        <r>  0.0017  0.0076  0.0000  0.0052  0.0000  0.0000  0.0000  0.0000  0.0000 </r>
        <r>  0.0017  0.0076  0.0000  0.0052  0.0000  0.0000  0.0000  0.0000  0.0000 </r>
       </set>
       <set comment="band 14">
        <r>  0.0119  0.0137  0.0000  0.0301  0.0000  0.0000  0.0000  0.0000  0.0000 </r>
        <r>  0.0119  0.0137  0.0000  0.0301  0.0000  0.0000  0.0000  0.0000  0.0000 </r>
       </set>
       <set comment="band 15">
        <r>  0.0000  0.0000  0.0061  0.0000  0.0000  0.0000  0.0000  0.0000  0.0000 </r>
        <r>  0.0000  0.0000  0.0061  0.0000  0.0000  0.0000  0.0000  0.0000  0.0000 </r>
       </set>
       <set comment="band 16">
        <r>  0.0304  0.0413  0.0000  0.0434  0.0000  0.0000  0.0000  0.0000  0.0000 </r>
        <r>  0.0304  0.0413  0.0000  0.0434  0.0000  0.0000  0.0000  0.0000  0.0000 </r>
       </set>
      </set>
      <set comment="kpoint 24">
       <set comment="band 1">
        <r>  0.2818  0.0325  0.0000  0.0527  0.0000  0.0000  0.0000  0.0000  0.0000 </r>
        <r>  0.2818  0.0325  0.0000  0.0527  0.0000  0.0000  0.0000  0.0000  0.0000 </r>
       </set>
       <set comment="band 2">
        <r>  0.1563  0.0473  0.0000  0.1418  0.0000  0.0000  0.0000  0.0000  0.0000 </r>
        <r>  0.1563  0.0473  0.0000  0.1418  0.0000  0.0000  0.0000  0.0000  0.0000 </r>
       </set>
       <set comment="band 3">
        <r>  0.0467  0.2249  0.0000  0.0874  0.0000  0.0000  0.0000  0.0000  0.0000 </r>
        <r>  0.0467  0.2249  0.0000  0.0874  0.0000  0.0000  0.0000  0.0000  0.0000 </r>
       </set>
       <set comment="band 4">
        <r>  0.0000  0.0000  0.2582  0.0000  0.0000  0.0000  0.0000  0.0000  0.0000 </r>
        <r>  0.0000  0.0000  0.2582  0.0000  0.0000  0.0000  0.0000  0.0000  0.0000 </r>
       </set>
       <set comment="band 5">
        <r>  0.0000  0.0000  0.2517  0.0000  0.0000  0.0000  0.0000  0.0000  0.0000 </r>
        <r>  0.0000  0.0000  0.2517  0.0000  0.0000  0.0000  0.0000  0.0000  0.0000 </r>
       </set>
       <set comment="band 6">
        <r>  0.1077  0.0886  0.0000  0.0583  0.0000  0.0000  0.0000  0.0000  0.0000 </r>
        <r>  0.1077  0.0886  0.0000  0.0583  0.0000  0.0000  0.0000  0.0000  0.0000 </r>
       </set>
       <set comment="band 7">
        <r>  0.0000  0.0000  0.0306  0.0000  0.0000  0.0000  0.0000  0.0000  0.0000 </r>
        <r>  0.0000  0.0000  0.0306  0.0000  0.0000  0.0000  0.0000  0.0000  0.0000 </r>
       </set>
       <set comment="band 8">
        <r>  0.0008  0.0151  0.0000  0.0199  0.0000  0.0000  0.0000  0.0000  0.0000 </r>
        <r>  0.0008  0.0151  0.0000  0.0199  0.0000  0.0000  0.0000  0.0000  0.0000 </r>
       </set>
       <set comment="band 9">
        <r>  0.0025  0.0059  0.0000  0.0144  0.0000  0.0000  0.0000  0.0000  0.0000 </r>
        <r>  0.0025  0.0059  0.0000  0.0144  0.0000  0.0000  0.0000  0.0000  0.0000 </r>
       </set>
       <set comment="band 10">
        <r>  0.0000  0.0000  0.0140  0.0000  0.0000  0.0000  0.0000  0.0000  0.0000 </r>
        <r>  0.0000  0.0000  0.0140  0.0000  0.0000  0.0000  0.0000  0.0000  0.0000 </r>
       </set>
       <set comment="band 11">
        <r>  0.0000  0.0045  0.0000  0.0055  0.0000  0.0000  0.0000  0.0000  0.0000 </r>
        <r>  0.0000  0.0045  0.0000  0.0054  0.0000  0.0000  0.0000  0.0000  0.0000 </r>
       </set>
       <set comment="band 12">
        <r>  0.0002  0.0014  0.0000  0.0038  0.0000  0.0000  0.0000  0.0000  0.0000 </r>
        <r>  0.0002  0.0014  0.0000  0.0039  0.0000  0.0000  0.0000  0.0000  0.0000 </r>
       </set>
       <set comment="band 13">
        <r>  0.0000  0.0000  0.0004  0.0000  0.0000  0.0000  0.0000  0.0000  0.0000 </r>
        <r>  0.0000  0.0000  0.0004  0.0000  0.0000  0.0000  0.0000  0.0000  0.0000 </r>
       </set>
       <set comment="band 14">
        <r>  0.0000  0.0000  0.0137  0.0000  0.0000  0.0000  0.0000  0.0000  0.0000 </r>
        <r>  0.0000  0.0000  0.0137  0.0000  0.0000  0.0000  0.0000  0.0000  0.0000 </r>
       </set>
       <set comment="band 15">
        <r>  0.0059  0.0407  0.0000  0.0411  0.0000  0.0000  0.0000  0.0000  0.0000 </r>
        <r>  0.0059  0.0407  0.0000  0.0411  0.0000  0.0000  0.0000  0.0000  0.0000 </r>
       </set>
       <set comment="band 16">
        <r>  0.0000  0.0061  0.0000  0.0173  0.0000  0.0000  0.0000  0.0000  0.0000 </r>
        <r>  0.0000  0.0061  0.0000  0.0174  0.0000  0.0000  0.0000  0.0000  0.0000 </r>
       </set>
      </set>
      <set comment="kpoint 25">
       <set comment="band 1">
        <r>  0.2565  0.0696  0.0000  0.0251  0.0000  0.0000  0.0000  0.0000  0.0000 </r>
        <r>  0.2565  0.0696  0.0000  0.0251  0.0000  0.0000  0.0000  0.0000  0.0000 </r>
       </set>
       <set comment="band 2">
        <r>  0.2054  0.1006  0.0000  0.0717  0.0000  0.0000  0.0000  0.0000  0.0000 </r>
        <r>  0.2054  0.1006  0.0000  0.0717  0.0000  0.0000  0.0000  0.0000  0.0000 </r>
       </set>
       <set comment="band 3">
        <r>  0.0246  0.1176  0.0000  0.1992  0.0000  0.0000  0.0000  0.0000  0.0000 </r>
        <r>  0.0246  0.1176  0.0000  0.1992  0.0000  0.0000  0.0000  0.0000  0.0000 </r>
       </set>
       <set comment="band 4">
        <r>  0.0000  0.0000  0.2471  0.0000  0.0000  0.0000  0.0000  0.0000  0.0000 </r>
        <r>  0.0000  0.0000  0.2471  0.0000  0.0000  0.0000  0.0000  0.0000  0.0000 </r>
       </set>
       <set comment="band 5">
        <r>  0.0000  0.0000  0.2727  0.0000  0.0000  0.0000  0.0000  0.0000  0.0000 </r>
        <r>  0.0000  0.0000  0.2727  0.0000  0.0000  0.0000  0.0000  0.0000  0.0000 </r>
       </set>
       <set comment="band 6">
        <r>  0.0026  0.0111  0.0000  0.0049  0.0000  0.0000  0.0000  0.0000  0.0000 </r>
        <r>  0.0026  0.0111  0.0000  0.0049  0.0000  0.0000  0.0000  0.0000  0.0000 </r>
       </set>
       <set comment="band 7">
        <r>  0.0000  0.0000  0.0236  0.0000  0.0000  0.0000  0.0000  0.0000  0.0000 </r>
        <r>  0.0000  0.0000  0.0236  0.0000  0.0000  0.0000  0.0000  0.0000  0.0000 </r>
       </set>
       <set comment="band 8">
        <r>  0.0001  0.0039  0.0000  0.0025  0.0000  0.0000  0.0000  0.0000  0.0000 </r>
        <r>  0.0001  0.0039  0.0000  0.0025  0.0000  0.0000  0.0000  0.0000  0.0000 </r>
       </set>
       <set comment="band 9">
        <r>  0.0000  0.0000  0.0030  0.0000  0.0000  0.0000  0.0000  0.0000  0.0000 </r>
        <r>  0.0000  0.0000  0.0030  0.0000  0.0000  0.0000  0.0000  0.0000  0.0000 </r>
       </set>
       <set comment="band 10">
        <r>  0.0344  0.0511  0.0000  0.1150  0.0000  0.0000  0.0000  0.0000  0.0000 </r>
        <r>  0.0344  0.0511  0.0000  0.1150  0.0000  0.0000  0.0000  0.0000  0.0000 </r>
       </set>
       <set comment="band 11">
        <r>  0.0887  0.0894  0.0000  0.1048  0.0000  0.0000  0.0000  0.0000  0.0000 </r>
        <r>  0.0887  0.0895  0.0000  0.1048  0.0000  0.0000  0.0000  0.0000  0.0000 </r>
       </set>
       <set comment="band 12">
        <r>  0.0000  0.0000  0.0041  0.0000  0.0000  0.0000  0.0000  0.0000  0.0000 </r>
        <r>  0.0000  0.0000  0.0041  0.0000  0.0000  0.0000  0.0000  0.0000  0.0000 </r>
       </set>
       <set comment="band 13">
        <r>  0.0037  0.0071  0.0000  0.0032  0.0000  0.0000  0.0000  0.0000  0.0000 </r>
        <r>  0.0037  0.0071  0.0000  0.0032  0.0000  0.0000  0.0000  0.0000  0.0000 </r>
       </set>
       <set comment="band 14">
        <r>  0.0293  0.0040  0.0000  0.0112  0.0000  0.0000  0.0000  0.0000  0.0000 </r>
        <r>  0.0298  0.0038  0.0000  0.0109  0.0000  0.0000  0.0000  0.0000  0.0000 </r>
       </set>
       <set comment="band 15">
        <r>  0.0120  0.0186  0.0000  0.0109  0.0000  0.0000  0.0000  0.0000  0.0000 </r>
        <r>  0.0114  0.0188  0.0000  0.0112  0.0000  0.0000  0.0000  0.0000  0.0000 </r>
       </set>
       <set comment="band 16">
        <r>  0.0000  0.0000  0.0199  0.0000  0.0000  0.0000  0.0000  0.0000  0.0000 </r>
        <r>  0.0000  0.0000  0.0202  0.0000  0.0000  0.0000  0.0000  0.0000  0.0000 </r>
       </set>
      </set>
      <set comment="kpoint 26">
       <set comment="band 1">
        <r>  0.2550  0.0709  0.0000  0.0364  0.0000  0.0000  0.0000  0.0000  0.0000 </r>
        <r>  0.2550  0.0709  0.0000  0.0364  0.0000  0.0000  0.0000  0.0000  0.0000 </r>
       </set>
       <set comment="band 2">
        <r>  0.2086  0.0332  0.0000  0.1248  0.0000  0.0000  0.0000  0.0000  0.0000 </r>
        <r>  0.2086  0.0332  0.0000  0.1248  0.0000  0.0000  0.0000  0.0000  0.0000 </r>
       </set>
       <set comment="band 3">
        <r>  0.0317  0.1843  0.0000  0.1224  0.0000  0.0000  0.0000  0.0000  0.0000 </r>
        <r>  0.0317  0.1843  0.0000  0.1224  0.0000  0.0000  0.0000  0.0000  0.0000 </r>
       </set>
       <set comment="band 4">
        <r>  0.0000  0.0000  0.2571  0.0000  0.0000  0.0000  0.0000  0.0000  0.0000 </r>
        <r>  0.0000  0.0000  0.2571  0.0000  0.0000  0.0000  0.0000  0.0000  0.0000 </r>
       </set>
       <set comment="band 5">
        <r>  0.0000  0.0000  0.2645  0.0000  0.0000  0.0000  0.0000  0.0000  0.0000 </r>
        <r>  0.0000  0.0000  0.2645  0.0000  0.0000  0.0000  0.0000  0.0000  0.0000 </r>
       </set>
       <set comment="band 6">
        <r>  0.0000  0.0000  0.0110  0.0000  0.0000  0.0000  0.0000  0.0000  0.0000 </r>
        <r>  0.0000  0.0000  0.0110  0.0000  0.0000  0.0000  0.0000  0.0000  0.0000 </r>
       </set>
       <set comment="band 7">
        <r>  0.0004  0.0221  0.0000  0.0158  0.0000  0.0000  0.0000  0.0000  0.0000 </r>
        <r>  0.0004  0.0221  0.0000  0.0158  0.0000  0.0000  0.0000  0.0000  0.0000 </r>
       </set>
       <set comment="band 8">
        <r>  0.0651  0.1099  0.0000  0.0657  0.0000  0.0000  0.0000  0.0000  0.0000 </r>
        <r>  0.0651  0.1099  0.0000  0.0657  0.0000  0.0000  0.0000  0.0000  0.0000 </r>
       </set>
       <set comment="band 9">
        <r>  0.0058  0.0113  0.0000  0.0756  0.0000  0.0000  0.0000  0.0000  0.0000 </r>
        <r>  0.0058  0.0113  0.0000  0.0756  0.0000  0.0000  0.0000  0.0000  0.0000 </r>
       </set>
       <set comment="band 10">
        <r>  0.0000  0.0000  0.0060  0.0000  0.0000  0.0000  0.0000  0.0000  0.0000 </r>
        <r>  0.0000  0.0000  0.0060  0.0000  0.0000  0.0000  0.0000  0.0000  0.0000 </r>
       </set>
       <set comment="band 11">
        <r>  0.0014  0.0025  0.0000  0.0070  0.0000  0.0000  0.0000  0.0000  0.0000 </r>
        <r>  0.0014  0.0025  0.0000  0.0070  0.0000  0.0000  0.0000  0.0000  0.0000 </r>
       </set>
       <set comment="band 12">
        <r>  0.0000  0.0000  0.0135  0.0000  0.0000  0.0000  0.0000  0.0000  0.0000 </r>
        <r>  0.0000  0.0000  0.0135  0.0000  0.0000  0.0000  0.0000  0.0000  0.0000 </r>
       </set>
       <set comment="band 13">
        <r>  0.0123  0.0227  0.0000  0.0277  0.0000  0.0000  0.0000  0.0000  0.0000 </r>
        <r>  0.0124  0.0226  0.0000  0.0277  0.0000  0.0000  0.0000  0.0000  0.0000 </r>
       </set>
       <set comment="band 14">
        <r>  0.0008  0.0233  0.0000  0.0074  0.0000  0.0000  0.0000  0.0000  0.0000 </r>
        <r>  0.0008  0.0233  0.0000  0.0074  0.0000  0.0000  0.0000  0.0000  0.0000 </r>
       </set>
       <set comment="band 15">
        <r>  0.0000  0.0000  0.0069  0.0000  0.0000  0.0000  0.0000  0.0000  0.0000 </r>
        <r>  0.0000  0.0000  0.0069  0.0000  0.0000  0.0000  0.0000  0.0000  0.0000 </r>
       </set>
       <set comment="band 16">
        <r>  0.0365  0.0159  0.0000  0.0511  0.0000  0.0000  0.0000  0.0000  0.0000 </r>
        <r>  0.0363  0.0160  0.0000  0.0513  0.0000  0.0000  0.0000  0.0000  0.0000 </r>
       </set>
      </set>
      <set comment="kpoint 27">
       <set comment="band 1">
        <r>  0.2005  0.0729  0.0000  0.0729  0.0000  0.0000  0.0000  0.0000  0.0000 </r>
        <r>  0.2996  0.0488  0.0000  0.0488  0.0000  0.0000  0.0000  0.0000  0.0000 </r>
       </set>
       <set comment="band 2">
        <r>  0.2996  0.0488  0.0000  0.0488  0.0000  0.0000  0.0000  0.0000  0.0000 </r>
        <r>  0.2005  0.0729  0.0000  0.0729  0.0000  0.0000  0.0000  0.0000  0.0000 </r>
       </set>
       <set comment="band 3">
        <r>  0.0000  0.1609  0.0000  0.1609  0.0000  0.0000  0.0000  0.0000  0.0000 </r>
        <r>  0.0000  0.1609  0.0000  0.1609  0.0000  0.0000  0.0000  0.0000  0.0000 </r>
       </set>
       <set comment="band 4">
        <r>  0.0000  0.0000  0.1808  0.0000  0.0000  0.0000  0.0000  0.0000  0.0000 </r>
        <r>  0.0000  0.0000  0.3451  0.0000  0.0000  0.0000  0.0000  0.0000  0.0000 </r>
       </set>
       <set comment="band 5">
        <r>  0.0000  0.0000  0.3451  0.0000  0.0000  0.0000  0.0000  0.0000  0.0000 </r>
        <r>  0.0000  0.0000  0.1808  0.0000  0.0000  0.0000  0.0000  0.0000  0.0000 </r>
       </set>
       <set comment="band 6">
        <r>  0.0000  0.0000  0.0000  0.0000  0.0000  0.0000  0.0000  0.0000  0.0000 </r>
        <r>  0.0000  0.0000  0.0000  0.0000  0.0000  0.0000  0.0000  0.0000  0.0000 </r>
       </set>
       <set comment="band 7">
        <r>  0.0002  0.1192  0.0000  0.1192  0.0000  0.0000  0.0000  0.0000  0.0000 </r>
        <r>  0.0208  0.0013  0.0000  0.0013  0.0000  0.0000  0.0000  0.0000  0.0000 </r>
       </set>
       <set comment="band 8">
        <r>  0.0208  0.0013  0.0000  0.0013  0.0000  0.0000  0.0000  0.0000  0.0000 </r>
        <r>  0.0002  0.1192  0.0000  0.1192  0.0000  0.0000  0.0000  0.0000  0.0000 </r>
       </set>
       <set comment="band 9">
        <r>  0.0000  0.0225  0.0000  0.0225  0.0000  0.0000  0.0000  0.0000  0.0000 </r>
        <r>  0.0000  0.0225  0.0000  0.0225  0.0000  0.0000  0.0000  0.0000  0.0000 </r>
       </set>
       <set comment="band 10">
        <r>  0.0000  0.0000  0.0000  0.0000  0.0000  0.0000  0.0000  0.0000  0.0000 </r>
        <r>  0.0000  0.0000  0.0300  0.0000  0.0000  0.0000  0.0000  0.0000  0.0000 </r>
       </set>
       <set comment="band 11">
        <r>  0.0000  0.0000  0.0301  0.0000  0.0000  0.0000  0.0000  0.0000  0.0000 </r>
        <r>  0.0000  0.0000  0.0000  0.0000  0.0000  0.0000  0.0000  0.0000  0.0000 </r>
       </set>
       <set comment="band 12">
        <r>  0.0000  0.0444  0.0000  0.0448  0.0000  0.0000  0.0000  0.0000  0.0000 </r>
        <r>  0.0334  0.0000  0.0000  0.0000  0.0000  0.0000  0.0000  0.0000  0.0000 </r>
       </set>
       <set comment="band 13">
        <r>  0.0339  0.0000  0.0000  0.0000  0.0000  0.0000  0.0000  0.0000  0.0000 </r>
        <r>  0.0000  0.0453  0.0000  0.0449  0.0000  0.0000  0.0000  0.0000  0.0000 </r>
       </set>
       <set comment="band 14">
        <r>  0.0000  0.0047  0.0000  0.0042  0.0000  0.0000  0.0000  0.0000  0.0000 </r>
        <r>  0.0000  0.0042  0.0000  0.0047  0.0000  0.0000  0.0000  0.0000  0.0000 </r>
       </set>
       <set comment="band 15">
        <r>  0.0000  0.0000  0.0000  0.0000  0.0000  0.0000  0.0000  0.0000  0.0000 </r>
        <r>  0.0000  0.0000  0.0000  0.0000  0.0000  0.0000  0.0000  0.0000  0.0000 </r>
       </set>
       <set comment="band 16">
        <r>  0.0493  0.0282  0.0000  0.0285  0.0000  0.0000  0.0000  0.0000  0.0000 </r>
        <r>  0.0335  0.0416  0.0000  0.0414  0.0000  0.0000  0.0000  0.0000  0.0000 </r>
       </set>
      </set>
     </set>
    </set>
   </array>
  </projected>
 </calculation>
 <structure name="finalpos" >
  <crystal>
   <varray name="basis" >
    <v>       2.46413828       0.00000000       0.00000000 </v>
    <v>      -1.23206914       2.13400635       0.00000000 </v>
    <v>       0.00000000       0.00000000      15.00000000 </v>
   </varray>
   <i name="volume">     78.87730093 </i>
   <varray name="rec_basis" >
    <v>       0.40582138       0.23430108      -0.00000000 </v>
    <v>       0.00000000       0.46860217       0.00000000 </v>
    <v>       0.00000000      -0.00000000       0.06666667 </v>
   </varray>
  </crystal>
  <varray name="positions" >
   <v>       0.00000000       0.00000000       0.14475063 </v>
   <v>       0.66666698       0.33333300       0.14475063 </v>
  </varray>
 </structure>
</modeling>
